 argument  1 = LIIC_SN1_CH3I.nw



============================== echo of input deck ==============================
echo

start molecule

title "Title"
charge -1

geometry units angstroms print xyz autosym
 I                     0.00891508    -1.36966173    -0.00009725
 Cl                   -0.00171797     3.89266663    -0.00016041
 C                     0.01104817     0.89269380     0.00004266
 H                     0.47213198     1.18822088    -0.94140132
 H                    -1.03409036     1.19059461     0.07170131
 H                     0.59626071     1.18780486     0.86991495
end

basis
  * library def2-svpd
end

ecp
 I library "def2-ecp"
end

dft
xc b3lyp
mult 1
end

driver
default
maxiter 99
end

python
from nwgeom import *
geom = '''
    geometry noprint adjust
        zcoord
            bond  1 3   %f ci  constant
            bond  2 3   3.00 ccl  constant
        end
    end
'''
x0=3.000
y0=1.801
xmax=2.171
ymax=3.000
npts=10
xmin = x0 - (xmax-x0)/npts
results = scan_input(geom, \
[xmin],
[xmax],
npts, 'dft', task_optimize)
fp=open("sn1_ci.dat","w")
for i in range(0,len(results)):
    fp.write(f'{results[i][0][0]} {results[i][1][0]} \n')
fp.close()
end

task python
================================================================================


                                         
                                         


             Northwest Computational Chemistry Package (NWChem) 7.2.2
             --------------------------------------------------------


                    Environmental Molecular Sciences Laboratory
                       Pacific Northwest National Laboratory
                                Richland, WA 99352

                              Copyright (c) 1994-2022
                       Pacific Northwest National Laboratory
                            Battelle Memorial Institute

             NWChem is an open-source computational chemistry package
                        distributed under the terms of the
                      Educational Community License (ECL) 2.0
             A copy of the license is included with this distribution
                              in the LICENSE.TXT file

                                  ACKNOWLEDGMENT
                                  --------------

            This software and its documentation were developed at the
            EMSL at Pacific Northwest National Laboratory, a multiprogram
            national laboratory, operated for the U.S. Department of Energy
            by Battelle under Contract Number DE-AC05-76RL01830. Support
            for this work was provided by the Department of Energy Office
            of Biological and Environmental Research, Office of Basic
            Energy Sciences, and the Office of Advanced Scientific Computing.


           Job information
           ---------------

    hostname        = iiserb-lab4
    program         = nwchem
    date            = Tue Jul  9 13:13:26 2024

    compiled        = Fri_Jun_07_08:00:10_2024
    source          = /home/conda/feedstock_root/build_artifacts/nwchem_1717738152402/work
    nwchem branch   = 7.2.2
    nwchem revision = 64ba0f0
    ga revision     = 5.8.0
    use scalapack   = T
    input           = LIIC_SN1_CH3I.nw
    prefix          = molecule.
    data base       = ./molecule.db
    status          = startup
    nproc           =        4
    time left       =     -1s



           Memory information
           ------------------

    heap     =   26214398 doubles =    200.0 Mbytes
    stack    =   26214395 doubles =    200.0 Mbytes
    global   =   52428800 doubles =    400.0 Mbytes (distinct from heap & stack)
    total    =  104857593 doubles =    800.0 Mbytes
    verify   = yes
    hardfail = no 


           Directory information
           ---------------------

  0 permanent = .
  0 scratch   = .




                                NWChem Input Module
                                -------------------


                                       Title
                                       -----

 Scaling coordinates for geometry "geometry" by  1.889725989
 (inverse scale =  0.529177249)

 C1  symmetry detected

          ------
          auto-z
          ------
  autoz: The atoms group into disjoint clusters
 cluster   1:    1    3    4    5    6
 cluster   2:    2
 Connecting clusters   1   2 via atoms    5    2 r = 2.89
  autoz: regenerating connections with new bonds
  no constraints, skipping    0.0000000000000000     
  no constraints, skipping    0.0000000000000000     


                             Geometry "geometry" -> ""
                             -------------------------

 Output coordinates in angstroms (scale by  1.889725989 to convert to a.u.)

  No.       Tag          Charge          X              Y              Z
 ---- ---------------- ---------- -------------- -------------- --------------
    1 I                   53.0000    -0.00030687     1.40138515    -0.00052521
    2 Cl                  17.0000    -0.00067222    -3.86095391    -0.00115175
    3 C                    6.0000     0.00291594    -0.86096236     0.00499794
    4 H                    1.0000    -0.59914319    -1.15562888     0.86345455
    5 H                    1.0000    -0.43810799    -1.16082982    -0.94461872
    6 H                    1.0000     1.04744716    -1.15496356     0.09859214

      Atomic Mass 
      ----------- 

      I                126.900400
      Cl                34.968850
      C                 12.000000
      H                  1.007825


 Effective nuclear repulsion energy (a.u.)     232.3359740865

            Nuclear Dipole moment (a.u.) 
            ----------------------------
        X                 Y               Z
 ---------------- ---------------- ----------------
    -0.0000000000     0.0000000000    -0.0000000000



                                Z-matrix (autoz)
                                -------- 

 Units are Angstrom for bonds and degrees for angles

      Type          Name      I     J     K     L     M      Value
      ----------- --------  ----- ----- ----- ----- ----- ----------
    1 Stretch                  1     3                       2.26236
    2 Stretch                  2     5                       2.89347
    3 Stretch                  3     4                       1.08915
    4 Stretch                  3     5                       1.08913
    5 Stretch                  3     6                       1.08915
    6 Bend                     1     3     4               105.76441
    7 Bend                     1     3     5               105.82036
    8 Bend                     1     3     6               105.75425
    9 Bend                     2     5     3                84.91761
   10 Bend                     4     3     5               112.88603
   11 Bend                     4     3     6               112.91540
   12 Bend                     5     3     6               112.88923
   13 Torsion                  1     3     5     2        -179.97110
   14 Torsion                  2     5     3     4         -64.74956
   15 Torsion                  2     5     3     6          64.81792


            XYZ format geometry
            -------------------
     6
 geometry
 I                    -0.00030687     1.40138515    -0.00052521
 Cl                   -0.00067222    -3.86095391    -0.00115175
 C                     0.00291594    -0.86096236     0.00499794
 H                    -0.59914319    -1.15562888     0.86345455
 H                    -0.43810799    -1.16082982    -0.94461872
 H                     1.04744716    -1.15496356     0.09859214

 ==============================================================================
                                internuclear distances
 ------------------------------------------------------------------------------
       center one      |      center two      | atomic units |  angstroms
 ------------------------------------------------------------------------------
    3 C                |   1 I                |     4.27523  |     2.26236
    4 H                |   3 C                |     2.05820  |     1.08915
    5 H                |   3 C                |     2.05815  |     1.08913
    6 H                |   3 C                |     2.05819  |     1.08915
 ------------------------------------------------------------------------------
                         number of included internuclear distances:          4
 ==============================================================================



 ==============================================================================
                                 internuclear angles
 ------------------------------------------------------------------------------
        center 1       |       center 2       |       center 3       |  degrees
 ------------------------------------------------------------------------------
    1 I                |   3 C                |   4 H                |   105.76
    1 I                |   3 C                |   5 H                |   105.82
    1 I                |   3 C                |   6 H                |   105.75
    4 H                |   3 C                |   5 H                |   112.89
    4 H                |   3 C                |   6 H                |   112.92
    5 H                |   3 C                |   6 H                |   112.89
 ------------------------------------------------------------------------------
                            number of included internuclear angles:          6
 ==============================================================================



  library name resolved from: environment
  library file name is: </home/iiserb/anaconda3/envs/chemstarx/share/nwchem/libraries/>
  


 Summary of "ao basis" -> "" (cartesian)
 ------------------------------------------------------------------------------
       Tag                 Description            Shells   Functions and Types
 ---------------- ------------------------------  ------  ---------------------
 *                         def2-svpd                  on all atoms 


  library name resolved from: environment
  library file name is: </home/iiserb/anaconda3/envs/chemstarx/share/nwchem/libraries/>
  
                 ECP       "ecp basis" -> "" (cartesian)
                -----
  I (Iodine) Replaces    28 electrons
  -----------------------------------
             Channel    R-exponent     Exponent     Coefficients
         ------------ ---------------------------------------------------------
  1 U L       Both         2.00       19.458609     -21.842040
  1 U L       Both         2.00       19.349260     -28.468191
  1 U L       Both         2.00        4.823767      -0.243713
  1 U L       Both         2.00        4.884315      -0.320804

  2 U-s       Both         2.00       40.015835      49.994293
  2 U-s       Both         2.00       17.429747     281.025317
  2 U-s       Both         2.00        9.005484      61.573326
  2 U-s       Both         2.00       19.458609      21.842040
  2 U-s       Both         2.00       19.349260      28.468191
  2 U-s       Both         2.00        4.823767       0.243713
  2 U-s       Both         2.00        4.884315       0.320804

  3 U-p       Both         2.00       15.355466      67.442841
  3 U-p       Both         2.00       14.971833     134.881137
  3 U-p       Both         2.00        8.960164      14.675051
  3 U-p       Both         2.00        8.259096      29.375666
  3 U-p       Both         2.00       19.458609      21.842040
  3 U-p       Both         2.00       19.349260      28.468191
  3 U-p       Both         2.00        4.823767       0.243713
  3 U-p       Both         2.00        4.884315       0.320804

  4 U-d       Both         2.00       15.068908      35.439529
  4 U-d       Both         2.00       14.555322      53.176057
  4 U-d       Both         2.00        6.718647       9.067195
  4 U-d       Both         2.00        6.456393      13.206937
  4 U-d       Both         2.00        1.191779       0.089335
  4 U-d       Both         2.00        1.291157       0.052380
  4 U-d       Both         2.00       19.458609      21.842040
  4 U-d       Both         2.00       19.349260      28.468191
  4 U-d       Both         2.00        4.823767       0.243713
  4 U-d       Both         2.00        4.884315       0.320804


                               NWChem Python program
                               ---------------------

from nwgeom import *
geom = '''
    geometry noprint adjust
        zcoord
            bond  1 3   %f ci  constant
            bond  2 3   3.00 ccl  constant
        end
    end
'''
x0=3.000
y0=1.801
xmax=2.171
ymax=3.000
npts=10
xmin = x0 - (xmax-x0)/npts
results = scan_input(geom, \
[xmin],
[xmax],
npts, 'dft', task_optimize)
fp=open("sn1_ci.dat","w")
for i in range(0,len(results)):
    fp.write(f'{results[i][0][0]} {results[i][1][0]} \n')
fp.close()

 
 Scanning NWChem input 
 ---------------------
 

    geometry noprint adjust
        zcoord
            bond  1 3   %f ci  constant
            bond  2 3   3.00 ccl  constant
        end
    end

 
 Nstep  10
 Start  [3.0829]
 End    [2.171]
 
 
 Scanning NWChem input - step 1 of 10 
 

    geometry noprint adjust
        zcoord
            bond  1 3   3.000000 ci  constant
            bond  2 3   3.00 ccl  constant
        end
    end

 


                                NWChem Input Module
                                -------------------


 C1  symmetry detected


                           NWChem Geometry Optimization
                           ----------------------------




                                       Title


 maximum gradient threshold         (gmax) =   0.000450
 rms gradient threshold             (grms) =   0.000300
 maximum cartesian step threshold   (xmax) =   0.001800
 rms cartesian step threshold       (xrms) =   0.001200
 fixed trust radius                (trust) =   0.300000
 maximum step size to saddle      (sadstp) =   0.100000
 energy precision                  (eprec) =   5.0D-06
 maximum number of steps          (nptopt) =   99
 initial hessian option           (inhess) =    0
 line search option               (linopt) =    1
 hessian update option            (modupd) =    1
 saddle point option              (modsad) =    0
 initial eigen-mode to follow     (moddir) =    0
 initial variable to follow       (vardir) =    0
 follow first negative mode     (firstneg) =    T
 apply conjugacy                    (opcg) =    F
 source of zmatrix                         =   autoz   


          -------------------
          Energy Minimization
          -------------------


 Names of Z-matrix variables 
    1 ci           2 ccl          3              4              5         
    6              7              8              9             10         
   11             12             13             14         

 Variables with the same non-blank name are constrained to be equal


 Number of frozen variables =    2
           Frozen variables =    1    2

 Using old Hessian from previous optimization

          --------
          Step   0
          --------


                         Geometry "geometry" -> "geometry"
                         ---------------------------------

 Output coordinates in angstroms (scale by  1.889725989 to convert to a.u.)

  No.       Tag          Charge          X              Y              Z
 ---- ---------------- ---------- -------------- -------------- --------------
    1 I                   53.0000    -0.00101939     2.01608619    -0.00174528
    2 Cl                  17.0000    -0.00065515    -3.98389340    -0.00112350
    3 C                    6.0000     0.00310235    -0.98390266     0.00531746
    4 H                    1.0000    -0.59897342    -1.27861855     0.86374546
    5 H                    1.0000    -0.43793851    -1.28365303    -0.94432830
    6 H                    1.0000     1.04761697    -1.27797192     0.09888311

      Atomic Mass 
      ----------- 

      I                126.900400
      Cl                34.968850
      C                 12.000000
      H                  1.007825


 Effective nuclear repulsion energy (a.u.)     196.8027832500

            Nuclear Dipole moment (a.u.) 
            ----------------------------
        X                 Y               Z
 ---------------- ---------------- ----------------
    -0.0677394389    55.5252911664    -0.1160183080


                                 NWChem DFT Module
                                 -----------------


                                       Title


                      Basis "ao basis" -> "ao basis" (cartesian)
                      -----
  I (Iodine)
  ----------
            Exponent  Coefficients 
       -------------- ---------------------------------------------------------
  1 S  4.45904892E+02  0.002004
  1 S  2.33368424E+01 -0.149894
  1 S  1.95834461E+01  0.364365
  1 S  8.51120892E+00 -0.755381
  1 S  2.19961619E+00  0.828164
  1 S  1.06689705E+00  0.421610

  2 S  1.17205476E+01 -0.016160
  2 S  1.76259864E+00  0.352715

  3 S  2.86974763E-01  1.000000

  4 S  1.12276096E-01  1.000000

  5 S  4.51236355E-02  1.000000

  6 P  2.04990273E+01  0.077159
  6 P  1.05587546E+01 -0.383704
  6 P  1.50158955E+00  0.835542
  6 P  6.45971731E-01  0.167873

  7 P  3.02886568E+00  1.000000

  8 P  3.45065918E-01  1.000000

  9 P  1.11345138E-01  1.000000

 10 P  2.97955072E-02  1.000000

 11 D  5.12353549E+01  0.004035
 11 D  1.56162395E+01 -0.005077
 11 D  4.52660021E+00  0.291511
 11 D  2.05298088E+00  0.511458
 11 D  8.76402816E-01  0.312320

 12 D  3.09000000E-01  1.000000

 13 D  7.79872552E-02  1.000000

  Cl (Chlorine)
  -------------
            Exponent  Coefficients 
       -------------- ---------------------------------------------------------
  1 S  1.04498276E+04  0.001971
  1 S  1.57173652E+03  0.014755
  1 S  3.57120655E+02  0.066679
  1 S  1.00251859E+02  0.172289
  1 S  3.08127276E+01  0.158838

  2 S  5.19237894E+01 -0.100093
  2 S  5.70457610E+00  0.608418
  2 S  2.35083768E+00  0.543522

  3 S  4.46051247E-01  1.000000

  4 S  1.68488562E-01  1.000000

  5 S  5.53442294E-02  1.000000

  6 P  3.07667906E+02 -0.008780
  6 P  7.21020155E+01 -0.063563
  6 P  2.25326803E+01 -0.240164
  6 P  7.89917654E+00 -0.477989
  6 P  2.87672683E+00 -0.385159

  7 P  7.74593640E-01  1.000000

  8 P  2.10376997E-01  1.000000

  9 P  5.00462711E-02  1.000000

 10 D  6.50000000E-01  1.000000

 11 D  1.22848034E-01  1.000000

  C (Carbon)
  ----------
            Exponent  Coefficients 
       -------------- ---------------------------------------------------------
  1 S  1.23840169E+03  0.005457
  1 S  1.86290050E+02  0.040638
  1 S  4.22511763E+01  0.180256
  1 S  1.16765579E+01  0.463151
  1 S  3.59305065E+00  0.440872

  2 S  4.02451474E-01  1.000000

  3 S  1.30901827E-01  1.000000

  4 S  6.70535403E-02  1.000000

  5 P  9.46809706E+00  0.038388
  5 P  2.01035451E+00  0.211170
  5 P  5.47710047E-01  0.513282

  6 P  1.52686138E-01  1.000000

  7 D  8.00000000E-01  1.000000

  8 D  1.17131851E-01  1.000000

  H (Hydrogen)
  ------------
            Exponent  Coefficients 
       -------------- ---------------------------------------------------------
  1 S  1.30107010E+01  0.019682
  1 S  1.96225720E+00  0.137965
  1 S  4.44537960E-01  0.478319

  2 S  1.21949620E-01  1.000000

  3 P  8.00000000E-01  1.000000

  4 P  1.17040991E-01  1.000000



 Summary of "ao basis" -> "ao basis" (cartesian)
 ------------------------------------------------------------------------------
       Tag                 Description            Shells   Functions and Types
 ---------------- ------------------------------  ------  ---------------------
 I                         def2-svpd                13       38   5s5p3d
 Cl                        def2-svpd                11       29   5s4p2d
 C                         def2-svpd                 8       22   4s2p2d
 H                         def2-svpd                 4        8   2s2p




 Summary of "ao basis" -> "ao basis" (cartesian)
 ------------------------------------------------------------------------------
       Tag                 Description            Shells   Functions and Types
 ---------------- ------------------------------  ------  ---------------------
 I                         def2-svpd                13       38   5s5p3d
 Cl                        def2-svpd                11       29   5s4p2d
 C                         def2-svpd                 8       22   4s2p2d
 H                         def2-svpd                 4        8   2s2p


  Caching 1-el integrals 

            General Information
            -------------------
          SCF calculation type: DFT
          Wavefunction type:  closed shell.
          No. of atoms     :     6
          No. of electrons :    52
           Alpha electrons :    26
            Beta electrons :    26
          Charge           :    -1
          Spin multiplicity:     1
          Use of symmetry is: off; symmetry adaption is: off
          Maximum number of iterations:  50
          AO basis - number of functions:   113
                     number of shells:    44
          Convergence on energy requested:  1.00D-06
          Convergence on density requested:  1.00D-05
          Convergence on gradient requested:  5.00D-04

              XC Information
              --------------
                         B3LYP Method XC Potential
                     Hartree-Fock (Exact) Exchange  0.200          
                        Slater Exchange Functional  0.800 local    
                    Becke 1988 Exchange Functional  0.720 non-local
              Lee-Yang-Parr Correlation Functional  0.810          
                  VWN I RPA Correlation Functional  0.190 local    

             Grid Information
             ----------------
          Grid used for XC integration:  medium    
          Radial quadrature: Mura-Knowles        
          Angular quadrature: Lebedev. 
          Tag              B.-S. Rad. Rad. Pts. Rad. Cut. Ang. Pts.
          ---              ---------- --------- --------- ---------
          I                   1.40      123          16.0       590
          Cl                  1.00       88          18.0       590
          C                   0.70       49          13.0       434
          H                   0.35       45          12.0       434
          Grid pruning is: on 
          Number of quadrature shells:   395
          Spatial weights used:  Erf1

          Convergence Information
          -----------------------
          Convergence aids based upon iterative change in 
          total energy or number of iterations. 
          Levelshifting, if invoked, occurs when the 
          HOMO/LUMO gap drops below (HL_TOL):  1.00D-02
          DIIS, if invoked, will attempt to extrapolate 
          using up to (NFOCK): 10 stored Fock matrices.

                    Damping( 0%)  Levelshifting(0.5)       DIIS
                  --------------- ------------------- ---------------
          dE  on:    start            ASAP                start   
          dE off:    2 iters         50 iters            50 iters 


      Screening Tolerance Information
      -------------------------------
          Density screening/tol_rho:  1.00D-10
          AO Gaussian exp screening on grid/accAOfunc:  14
          CD Gaussian exp screening on grid/accCDfunc:  20
          XC Gaussian exp screening on grid/accXCfunc:  20
          Schwarz screening/accCoul:  1.00D-08


      Superposition of Atomic Density Guess
      -------------------------------------

 Sum of atomic energies:        -845.57913955

 Renormalizing density from      51.00 to     52

      Non-variational initial energy
      ------------------------------

 Total energy =    -802.549387
 1-e energy   =   -1455.593027
 2-e energy   =     540.707850
 HOMO         =      -0.087799
 LUMO         =       0.095549

  WARNING: movecs_in_org=atomic not equal to movecs_in=./molecule.movecs
   Time after variat. SCF:      0.4
   Time prior to 1st pass:      0.4

 Grid_pts file          = ./molecule.gridpts.0
 Record size in doubles =  12289        No. of grid_pts per rec  =   3070
 Max. records in memory =     22        Max. recs in file   = 253312716


           Memory utilization after 1st SCF pass: 
           Heap Space remaining (MW):        0.00                1324
          Stack Space remaining (MW):       26.21            26213652

   convergence    iter        energy       DeltaE   RMS-Dens  Diis-err    time
 ---------------- ----- ----------------- --------- --------- ---------  ------
 d= 0,ls=0.0,diis     1   -797.6933278310 -9.10D+02  2.41D-02  1.05D+00     1.4
 d= 0,ls=0.5,diis     2   -796.8270087621  8.66D-01  8.91D-03  4.65D+00     2.3
 d= 0,ls=0.5,diis     3   -797.4171625557 -5.90D-01  5.28D-03  1.64D+00     3.2
 d= 0,ls=0.5,diis     4   -797.6878256051 -2.71D-01  3.16D-03  4.75D-01     4.1
 d= 0,ls=0.5,diis     5   -797.7555718776 -6.77D-02  1.81D-03  2.17D-01     5.0
  Resetting Diis
 d= 0,ls=0.5,diis     6   -797.7913796726 -3.58D-02  1.24D-03  9.08D-02     6.0
 d= 0,ls=0.5,diis     7   -797.8083393647 -1.70D-02  2.25D-03  4.09D-02     6.9
 d= 0,ls=0.5,diis     8   -797.8202427274 -1.19D-02  1.30D-03  1.91D-02     7.9
 d= 0,ls=0.5,diis     9   -797.8236968873 -3.45D-03  8.90D-04  7.01D-03     8.8
 d= 0,ls=0.5,diis    10   -797.8253209567 -1.62D-03  5.07D-04  1.57D-03     9.8
 d= 0,ls=0.5,diis    11   -797.8259104630 -5.90D-04  2.97D-04  4.76D-04    10.8
 d= 0,ls=0.5,diis    12   -797.8261490199 -2.39D-04  2.01D-04  3.37D-04    11.7
 d= 0,ls=0.5,diis    13   -797.8262813908 -1.32D-04  1.46D-04  2.78D-04    12.6
 d= 0,ls=0.5,diis    14   -797.8263623724 -8.10D-05  1.11D-04  2.27D-04    13.6
 d= 0,ls=0.5,diis    15   -797.8264160619 -5.37D-05  8.15D-05  1.69D-04    14.5
 d= 0,ls=0.5,diis    16   -797.8264510321 -3.50D-05  6.17D-05  1.22D-04    15.5
 d= 0,ls=0.5,diis    17   -797.8264739583 -2.29D-05  4.94D-05  8.81D-05    16.4
 d= 0,ls=0.5,diis    18   -797.8264894218 -1.55D-05  3.86D-05  6.22D-05    17.4
 d= 0,ls=0.5,diis    19   -797.8265000187 -1.06D-05  2.98D-05  4.29D-05    18.3
 d= 0,ls=0.5,diis    20   -797.8265064842 -6.47D-06  2.31D-05  3.24D-05    19.2
 d= 0,ls=0.5,diis    21   -797.8265110541 -4.57D-06  1.85D-05  2.35D-05    20.2
 d= 0,ls=0.5,diis    22   -797.8265142997 -3.25D-06  1.50D-05  1.65D-05    21.2
 d= 0,ls=0.5,diis    23   -797.8265165490 -2.25D-06  1.21D-05  1.16D-05    22.1
 d= 0,ls=0.5,diis    24   -797.8265181238 -1.57D-06  9.77D-06  7.94D-06    23.1
 d= 0,ls=0.5,diis    25   -797.8265191886 -1.06D-06  7.94D-06  5.45D-06    24.1
 d= 0,ls=0.5,diis    26   -797.8265199085 -7.20D-07  6.52D-06  3.71D-06    25.0


         Total DFT energy =     -797.826520410450
      One electron energy =    -1439.245210420218
           Coulomb energy =      586.217434732405
    Exchange-Corr. energy =      -57.134535171691
 Nuclear repulsion energy =      112.335790449054

 Numeric. integr. density =       52.000006902718

     Total iterative time =     25.6s



                       DFT Final Molecular Orbital Analysis
                       ------------------------------------

 Vector    1  Occ=2.000000D+00  E=-1.013047D+02
              MO Center= -6.6D-04, -4.0D+00, -1.1D-03, r^2= 3.2D-03
   Bfn.  Coefficient  Atom+Function         Bfn.  Coefficient  Atom+Function  
  ----- ------------  ---------------      ----- ------------  ---------------
    39      0.993389  2 Cl s                 40      0.030465  2 Cl s          
    41     -0.025530  2 Cl s          

 Vector    2  Occ=2.000000D+00  E=-1.014177D+01
              MO Center=  3.1D-03, -9.8D-01,  5.3D-03, r^2= 2.8D-02
   Bfn.  Coefficient  Atom+Function         Bfn.  Coefficient  Atom+Function  
  ----- ------------  ---------------      ----- ------------  ---------------
    68      0.987488  3 C  s                 71     -0.089451  3 C  s          
    69      0.063598  3 C  s                 87      0.030923  3 C  dyy        
    84      0.030478  3 C  dxx               89      0.030450  3 C  dzz        

 Vector    3  Occ=2.000000D+00  E=-9.234339D+00
              MO Center= -6.5D-04, -4.0D+00, -1.1D-03, r^2= 6.6D-02
   Bfn.  Coefficient  Atom+Function         Bfn.  Coefficient  Atom+Function  
  ----- ------------  ---------------      ----- ------------  ---------------
    40      1.013676  2 Cl s                 39     -0.311091  2 Cl s          
    41      0.070912  2 Cl s          

 Vector    4  Occ=2.000000D+00  E=-7.000372D+00
              MO Center= -6.6D-04, -4.0D+00, -1.1D-03, r^2= 5.8D-02
   Bfn.  Coefficient  Atom+Function         Bfn.  Coefficient  Atom+Function  
  ----- ------------  ---------------      ----- ------------  ---------------
    45      0.980783  2 Cl py                48     -0.051955  2 Cl py         
    70      0.041906  3 C  s          

 Vector    5  Occ=2.000000D+00  E=-6.997042D+00
              MO Center= -6.6D-04, -4.0D+00, -1.1D-03, r^2= 5.8D-02
   Bfn.  Coefficient  Atom+Function         Bfn.  Coefficient  Atom+Function  
  ----- ------------  ---------------      ----- ------------  ---------------
    46      0.901737  2 Cl pz                44      0.386593  2 Cl px         
    49     -0.046310  2 Cl pz         

 Vector    6  Occ=2.000000D+00  E=-6.997041D+00
              MO Center= -6.5D-04, -4.0D+00, -1.1D-03, r^2= 5.8D-02
   Bfn.  Coefficient  Atom+Function         Bfn.  Coefficient  Atom+Function  
  ----- ------------  ---------------      ----- ------------  ---------------
    44      0.901744  2 Cl px                46     -0.386598  2 Cl pz         
    47     -0.046307  2 Cl px         

 Vector    7  Occ=2.000000D+00  E=-6.683122D+00
              MO Center= -1.0D-03,  2.0D+00, -1.7D-03, r^2= 1.8D-01
   Bfn.  Coefficient  Atom+Function         Bfn.  Coefficient  Atom+Function  
  ----- ------------  ---------------      ----- ------------  ---------------
     1      0.934743  1 I  s                  2      0.082900  1 I  s          
     3      0.033951  1 I  s          

 Vector    8  Occ=2.000000D+00  E=-4.706047D+00
              MO Center= -1.0D-03,  2.0D+00, -1.7D-03, r^2= 2.0D-01
   Bfn.  Coefficient  Atom+Function         Bfn.  Coefficient  Atom+Function  
  ----- ------------  ---------------      ----- ------------  ---------------
     7      0.566608  1 I  py                10      0.536933  1 I  py         

 Vector    9  Occ=2.000000D+00  E=-4.697032D+00
              MO Center= -1.0D-03,  2.0D+00, -1.7D-03, r^2= 2.0D-01
   Bfn.  Coefficient  Atom+Function         Bfn.  Coefficient  Atom+Function  
  ----- ------------  ---------------      ----- ------------  ---------------
     6      0.553112  1 I  px                 9      0.524520  1 I  px         
     8      0.122851  1 I  pz                11      0.116500  1 I  pz         

 Vector   10  Occ=2.000000D+00  E=-4.697032D+00
              MO Center= -1.0D-03,  2.0D+00, -1.7D-03, r^2= 2.0D-01
   Bfn.  Coefficient  Atom+Function         Bfn.  Coefficient  Atom+Function  
  ----- ------------  ---------------      ----- ------------  ---------------
     8      0.553111  1 I  pz                11      0.524519  1 I  pz         
     6     -0.122853  1 I  px                 9     -0.116502  1 I  px         

 Vector   11  Occ=2.000000D+00  E=-1.753691D+00
              MO Center= -1.0D-03,  2.0D+00, -1.7D-03, r^2= 2.8D-01
   Bfn.  Coefficient  Atom+Function         Bfn.  Coefficient  Atom+Function  
  ----- ------------  ---------------      ----- ------------  ---------------
    24      0.980494  1 I  dyy               21     -0.489622  1 I  dxx        
    26     -0.489614  1 I  dzz               30      0.051740  1 I  dyy        
    70     -0.044092  3 C  s                 27     -0.028942  1 I  dxx        
    32     -0.028942  1 I  dzz        

 Vector   12  Occ=2.000000D+00  E=-1.751233D+00
              MO Center= -1.0D-03,  2.0D+00, -1.7D-03, r^2= 2.8D-01
   Bfn.  Coefficient  Atom+Function         Bfn.  Coefficient  Atom+Function  
  ----- ------------  ---------------      ----- ------------  ---------------
    22      1.674860  1 I  dxy               25      0.279607  1 I  dyz        
    28      0.089829  1 I  dxy        

 Vector   13  Occ=2.000000D+00  E=-1.751233D+00
              MO Center= -1.0D-03,  2.0D+00, -1.7D-03, r^2= 2.8D-01
   Bfn.  Coefficient  Atom+Function         Bfn.  Coefficient  Atom+Function  
  ----- ------------  ---------------      ----- ------------  ---------------
    25      1.674853  1 I  dyz               22     -0.279626  1 I  dxy        
    31      0.089830  1 I  dyz        

 Vector   14  Occ=2.000000D+00  E=-1.743758D+00
              MO Center= -1.0D-03,  2.0D+00, -1.7D-03, r^2= 2.8D-01
   Bfn.  Coefficient  Atom+Function         Bfn.  Coefficient  Atom+Function  
  ----- ------------  ---------------      ----- ------------  ---------------
    21      0.849179  1 I  dxx               26     -0.849177  1 I  dzz        
    27      0.045005  1 I  dxx               32     -0.045005  1 I  dzz        

 Vector   15  Occ=2.000000D+00  E=-1.743758D+00
              MO Center= -1.0D-03,  2.0D+00, -1.7D-03, r^2= 2.8D-01
   Bfn.  Coefficient  Atom+Function         Bfn.  Coefficient  Atom+Function  
  ----- ------------  ---------------      ----- ------------  ---------------
    23      1.698356  1 I  dxz               29      0.090010  1 I  dxz        

 Vector   16  Occ=2.000000D+00  E=-5.771083D-01
              MO Center=  2.3D-03, -1.8D+00,  4.0D-03, r^2= 2.6D+00
   Bfn.  Coefficient  Atom+Function         Bfn.  Coefficient  Atom+Function  
  ----- ------------  ---------------      ----- ------------  ---------------
    70      0.660300  3 C  s                 69      0.449023  3 C  s          
    41      0.358824  2 Cl s                 40     -0.263484  2 Cl s          
    71     -0.260363  3 C  s                 68     -0.211533  3 C  s          
    91     -0.179291  4 H  s                 99     -0.178755  5 H  s          
   107     -0.179350  6 H  s                 90      0.172804  4 H  s          

 Vector   17  Occ=2.000000D+00  E=-5.552999D-01
              MO Center=  3.5D-04, -3.2D+00,  6.0D-04, r^2= 3.0D+00
   Bfn.  Coefficient  Atom+Function         Bfn.  Coefficient  Atom+Function  
  ----- ------------  ---------------      ----- ------------  ---------------
    41      0.653003  2 Cl s                 40     -0.473778  2 Cl s          
    70     -0.336426  3 C  s                 42      0.324034  2 Cl s          
    69     -0.263191  3 C  s                 71      0.160621  3 C  s          
     3     -0.128750  1 I  s                 68      0.122643  3 C  s          
    90     -0.098091  4 H  s                 98     -0.097862  5 H  s          

 Vector   18  Occ=2.000000D+00  E=-5.196601D-01
              MO Center= -8.1D-04,  1.9D+00, -1.4D-03, r^2= 1.9D+00
   Bfn.  Coefficient  Atom+Function         Bfn.  Coefficient  Atom+Function  
  ----- ------------  ---------------      ----- ------------  ---------------
     3      0.851913  1 I  s                  1     -0.426764  1 I  s          
     4      0.386347  1 I  s                  2     -0.367299  1 I  s          
    70     -0.217543  3 C  s                 69     -0.116360  3 C  s          
    71      0.090775  3 C  s                 91      0.063905  4 H  s          
    99      0.063870  5 H  s                107      0.063907  6 H  s          

 Vector   19  Occ=2.000000D+00  E=-3.086417D-01
              MO Center=  1.3D-01, -1.1D+00,  2.1D-01, r^2= 1.2D+00
   Bfn.  Coefficient  Atom+Function         Bfn.  Coefficient  Atom+Function  
  ----- ------------  ---------------      ----- ------------  ---------------
    72      0.438421  3 C  px               106      0.335465  6 H  s          
    90     -0.315674  4 H  s                 74     -0.176250  3 C  pz         
   107      0.160538  6 H  s                 91     -0.150943  4 H  s          
    75      0.111265  3 C  px                77     -0.044730  3 C  pz         
    86     -0.035856  3 C  dxz        

 Vector   20  Occ=2.000000D+00  E=-3.085226D-01
              MO Center= -1.2D-01, -1.1D+00, -2.0D-01, r^2= 1.2D+00
   Bfn.  Coefficient  Atom+Function         Bfn.  Coefficient  Atom+Function  
  ----- ------------  ---------------      ----- ------------  ---------------
    74      0.438491  3 C  pz                98     -0.375866  5 H  s          
    90      0.205027  4 H  s                 99     -0.179000  5 H  s          
    72      0.176279  3 C  px               106      0.170738  6 H  s          
    77      0.111459  3 C  pz                91      0.098278  4 H  s          
   107      0.081907  6 H  s                 86      0.047273  3 C  dxz        

 Vector   21  Occ=2.000000D+00  E=-1.597064D-01
              MO Center=  4.0D-04,  3.6D-01,  7.0D-04, r^2= 5.6D+00
   Bfn.  Coefficient  Atom+Function         Bfn.  Coefficient  Atom+Function  
  ----- ------------  ---------------      ----- ------------  ---------------
    13      0.425251  1 I  py                16      0.344996  1 I  py         
    73     -0.309893  3 C  py                76     -0.235066  3 C  py         
    70      0.214027  3 C  s                 51      0.181922  2 Cl py         
    10     -0.174043  1 I  py                 7     -0.141521  1 I  py         
    48      0.141830  2 Cl py                71     -0.118577  3 C  s          

 Vector   22  Occ=2.000000D+00  E=-1.190786D-01
              MO Center= -1.2D-03,  2.0D+00, -1.9D-03, r^2= 2.3D+00
   Bfn.  Coefficient  Atom+Function         Bfn.  Coefficient  Atom+Function  
  ----- ------------  ---------------      ----- ------------  ---------------
    14      0.573259  1 I  pz                17      0.505933  1 I  pz         
    11     -0.233763  1 I  pz                 8     -0.189292  1 I  pz         
    12      0.154163  1 I  px                15      0.136057  1 I  px         
    20      0.080586  1 I  pz                 9     -0.062865  1 I  px         
     6     -0.050905  1 I  px                88      0.029008  3 C  dyz        

 Vector   23  Occ=2.000000D+00  E=-1.190784D-01
              MO Center= -8.3D-04,  2.0D+00, -1.5D-03, r^2= 2.3D+00
   Bfn.  Coefficient  Atom+Function         Bfn.  Coefficient  Atom+Function  
  ----- ------------  ---------------      ----- ------------  ---------------
    12      0.573267  1 I  px                15      0.505948  1 I  px         
     9     -0.233767  1 I  px                 6     -0.189296  1 I  px         
    14     -0.154169  1 I  pz                17     -0.136065  1 I  pz         
    18      0.080586  1 I  px                11      0.062867  1 I  pz         
     8      0.050907  1 I  pz                85      0.029032  3 C  dxy        

 Vector   24  Occ=2.000000D+00  E=-1.048232D-01
              MO Center= -7.1D-04, -2.7D+00, -1.2D-03, r^2= 7.8D+00
   Bfn.  Coefficient  Atom+Function         Bfn.  Coefficient  Atom+Function  
  ----- ------------  ---------------      ----- ------------  ---------------
    51      0.519912  2 Cl py                48      0.409488  2 Cl py         
    13     -0.282494  1 I  py                16     -0.250895  1 I  py         
    45      0.237160  2 Cl py                54      0.123366  2 Cl py         
    70     -0.116170  3 C  s                 10      0.115106  1 I  py         
    69     -0.097054  3 C  s                  7      0.093221  1 I  py         

 Vector   25  Occ=2.000000D+00  E=-1.029967D-01
              MO Center= -7.7D-04, -4.0D+00, -1.3D-03, r^2= 1.5D+00
   Bfn.  Coefficient  Atom+Function         Bfn.  Coefficient  Atom+Function  
  ----- ------------  ---------------      ----- ------------  ---------------
    52      0.540106  2 Cl pz                49      0.425506  2 Cl pz         
    46      0.245952  2 Cl pz                50      0.234170  2 Cl px         
    47      0.184482  2 Cl px                55      0.145803  2 Cl pz         
    44      0.106635  2 Cl px                53      0.063214  2 Cl px         
    74     -0.036269  3 C  pz         

 Vector   26  Occ=2.000000D+00  E=-1.029939D-01
              MO Center= -5.1D-04, -4.0D+00, -8.5D-04, r^2= 1.5D+00
   Bfn.  Coefficient  Atom+Function         Bfn.  Coefficient  Atom+Function  
  ----- ------------  ---------------      ----- ------------  ---------------
    50      0.540157  2 Cl px                47      0.425527  2 Cl px         
    44      0.245966  2 Cl px                52     -0.234193  2 Cl pz         
    49     -0.184495  2 Cl pz                53      0.145846  2 Cl px         
    46     -0.106643  2 Cl pz                55     -0.063234  2 Cl pz         
    72     -0.035963  3 C  px         

 Vector   27  Occ=0.000000D+00  E= 6.776878D-04
              MO Center=  1.2D-03, -3.0D-01,  2.1D-03, r^2= 5.8D+00
   Bfn.  Coefficient  Atom+Function         Bfn.  Coefficient  Atom+Function  
  ----- ------------  ---------------      ----- ------------  ---------------
    73      0.500300  3 C  py                76      0.368657  3 C  py         
    13      0.334507  1 I  py                16      0.314855  1 I  py         
     5      0.263950  1 I  s                 51      0.238394  2 Cl py         
     4     -0.192596  1 I  s                 48      0.179516  2 Cl py         
     3     -0.146391  1 I  s                 10     -0.132543  1 I  py         

 Vector   28  Occ=0.000000D+00  E= 1.098265D-01
              MO Center=  4.4D-04,  2.4D+00,  7.1D-04, r^2= 1.3D+01
   Bfn.  Coefficient  Atom+Function         Bfn.  Coefficient  Atom+Function  
  ----- ------------  ---------------      ----- ------------  ---------------
     5      6.927558  1 I  s                  4     -3.127548  1 I  s          
    36     -1.717526  1 I  dyy               33     -1.607581  1 I  dxx        
    38     -1.607586  1 I  dzz               43      0.513901  2 Cl s          
    71      0.465309  3 C  s                  3     -0.367324  1 I  s          
    70     -0.282100  3 C  s                 19      0.263696  1 I  py         

 Vector   29  Occ=0.000000D+00  E= 1.334497D-01
              MO Center=  2.4D-04,  1.4D+00,  3.7D-04, r^2= 1.8D+01
   Bfn.  Coefficient  Atom+Function         Bfn.  Coefficient  Atom+Function  
  ----- ------------  ---------------      ----- ------------  ---------------
    71      3.090132  3 C  s                 70     -2.263509  3 C  s          
     5     -1.851094  1 I  s                 19      1.542278  1 I  py         
    43     -1.529990  2 Cl s                  4      0.762298  1 I  s          
    84     -0.453589  3 C  dxx               89     -0.451590  3 C  dzz        
    42      0.431789  2 Cl s                 33      0.364901  1 I  dxx        

 Vector   30  Occ=0.000000D+00  E= 1.459247D-01
              MO Center=  7.7D-03,  2.0D+00,  1.8D-02, r^2= 1.4D+01
   Bfn.  Coefficient  Atom+Function         Bfn.  Coefficient  Atom+Function  
  ----- ------------  ---------------      ----- ------------  ---------------
    18      1.093637  1 I  px                20     -0.500397  1 I  pz         
    15     -0.461676  1 I  px               107     -0.441361  6 H  s          
    91      0.437895  4 H  s                 17      0.211242  1 I  pz         
    75      0.162065  3 C  px               111      0.158655  6 H  px         
    12     -0.150924  1 I  px                95      0.112113  4 H  px         

 Vector   31  Occ=0.000000D+00  E= 1.459296D-01
              MO Center= -1.2D-02,  2.0D+00, -2.4D-02, r^2= 1.4D+01
   Bfn.  Coefficient  Atom+Function         Bfn.  Coefficient  Atom+Function  
  ----- ------------  ---------------      ----- ------------  ---------------
    20      1.093749  1 I  pz                99      0.504445  5 H  s          
    18      0.500431  1 I  px                17     -0.461762  1 I  pz         
    91     -0.258523  4 H  s                107     -0.253510  6 H  s          
    15     -0.211272  1 I  px                77      0.161319  3 C  pz         
   105      0.161992  5 H  pz                14     -0.150934  1 I  pz         

 Vector   32  Occ=0.000000D+00  E= 1.661287D-01
              MO Center= -1.1D-03, -3.0D+00, -1.9D-03, r^2= 1.9D+01
   Bfn.  Coefficient  Atom+Function         Bfn.  Coefficient  Atom+Function  
  ----- ------------  ---------------      ----- ------------  ---------------
    71     -4.574858  3 C  s                 70      4.334814  3 C  s          
     5      3.553473  1 I  s                 43     -2.691556  2 Cl s          
     4     -1.522759  1 I  s                 42      1.054603  2 Cl s          
    19     -1.000637  1 I  py                84      0.941768  3 C  dxx        
    89      0.940604  3 C  dzz               99     -0.843173  5 H  s          

 Vector   33  Occ=0.000000D+00  E= 2.068919D-01
              MO Center=  9.3D-03, -1.7D+00,  1.6D-02, r^2= 1.8D+01
   Bfn.  Coefficient  Atom+Function         Bfn.  Coefficient  Atom+Function  
  ----- ------------  ---------------      ----- ------------  ---------------
    71      5.386244  3 C  s                  5     -3.541725  1 I  s          
    70     -2.836942  3 C  s                  4      1.879701  1 I  s          
    87     -1.152612  3 C  dyy               43     -1.129417  2 Cl s          
    19      0.890967  1 I  py                36      0.871138  1 I  dyy        
    84     -0.871779  3 C  dxx               89     -0.874051  3 C  dzz        

 Vector   34  Occ=0.000000D+00  E= 2.133916D-01
              MO Center=  1.9D-01, -1.3D+00,  3.4D-01, r^2= 1.3D+01
   Bfn.  Coefficient  Atom+Function         Bfn.  Coefficient  Atom+Function  
  ----- ------------  ---------------      ----- ------------  ---------------
   107     -0.931641  6 H  s                 91      0.879932  4 H  s          
   111      0.839784  6 H  px                97     -0.667211  4 H  pz         
    53      0.642617  2 Cl px                34     -0.618113  1 I  dxy        
    95      0.443648  4 H  px                85     -0.366394  3 C  dxy        
    75      0.309215  3 C  px                50     -0.282688  2 Cl px         

 Vector   35  Occ=0.000000D+00  E= 2.134414D-01
              MO Center= -2.0D-01, -1.3D+00, -3.5D-01, r^2= 1.3D+01
   Bfn.  Coefficient  Atom+Function         Bfn.  Coefficient  Atom+Function  
  ----- ------------  ---------------      ----- ------------  ---------------
    99      1.031147  5 H  s                105      0.855768  5 H  pz         
    55      0.645457  2 Cl pz                37     -0.620252  1 I  dyz        
    91     -0.578270  4 H  s                107     -0.495930  6 H  s          
   111      0.438510  6 H  px                97      0.401447  4 H  pz         
   103      0.399305  5 H  px                88     -0.370173  3 C  dyz        

 Vector   36  Occ=0.000000D+00  E= 2.279303D-01
              MO Center=  8.7D-02,  1.1D+00,  1.4D-01, r^2= 8.1D+00
   Bfn.  Coefficient  Atom+Function         Bfn.  Coefficient  Atom+Function  
  ----- ------------  ---------------      ----- ------------  ---------------
    35      0.933892  1 I  dxz               37     -0.630292  1 I  dyz        
    38      0.351478  1 I  dzz               33     -0.346707  1 I  dxx        
   113      0.347363  6 H  pz                95      0.289347  4 H  px         
    99      0.290067  5 H  s                 34     -0.248528  1 I  dxy        
    55      0.181958  2 Cl pz                91     -0.162917  4 H  s          

 Vector   37  Occ=0.000000D+00  E= 2.279631D-01
              MO Center= -8.6D-02,  1.1D+00, -1.4D-01, r^2= 8.1D+00
   Bfn.  Coefficient  Atom+Function         Bfn.  Coefficient  Atom+Function  
  ----- ------------  ---------------      ----- ------------  ---------------
    35      0.696463  1 I  dxz               34      0.633349  1 I  dxy        
    33      0.465527  1 I  dxx               38     -0.466227  1 I  dzz        
   103     -0.351013  5 H  px               107      0.259406  6 H  s          
    37     -0.249911  1 I  dyz               91     -0.241557  4 H  s          
    53     -0.186892  2 Cl px               113      0.179614  6 H  pz         

 Vector   38  Occ=0.000000D+00  E= 2.377609D-01
              MO Center=  3.9D-02, -3.7D-01,  6.7D-02, r^2= 1.5D+01
   Bfn.  Coefficient  Atom+Function         Bfn.  Coefficient  Atom+Function  
  ----- ------------  ---------------      ----- ------------  ---------------
    34      1.083106  1 I  dxy               53      0.665102  2 Cl px         
    37     -0.446149  1 I  dyz               35     -0.320894  1 I  dxz        
    50     -0.312040  2 Cl px                55     -0.273962  2 Cl pz         
    33     -0.208624  1 I  dxx               38      0.207317  1 I  dzz        
    28      0.150874  1 I  dxy               22     -0.143597  1 I  dxy        

 Vector   39  Occ=0.000000D+00  E= 2.377833D-01
              MO Center= -3.8D-02, -3.7D-01, -6.4D-02, r^2= 1.5D+01
   Bfn.  Coefficient  Atom+Function         Bfn.  Coefficient  Atom+Function  
  ----- ------------  ---------------      ----- ------------  ---------------
    37      1.083648  1 I  dyz               55      0.665408  2 Cl pz         
    34      0.446400  1 I  dxy               35      0.416486  1 I  dxz        
    52     -0.312111  2 Cl pz                53      0.274124  2 Cl px         
    99     -0.172543  5 H  s                 33     -0.165074  1 I  dxx        
    38      0.156050  1 I  dzz               31      0.150833  1 I  dyz        

 Vector   40  Occ=0.000000D+00  E= 2.615371D-01
              MO Center=  3.0D-03, -3.0D+00,  5.1D-03, r^2= 1.4D+01
   Bfn.  Coefficient  Atom+Function         Bfn.  Coefficient  Atom+Function  
  ----- ------------  ---------------      ----- ------------  ---------------
    71    -11.086577  3 C  s                 70     10.989466  3 C  s          
     5      4.968910  1 I  s                 43      3.854915  2 Cl s          
    91     -2.379562  4 H  s                 99     -2.373423  5 H  s          
   107     -2.380240  6 H  s                 54      2.230743  2 Cl py         
    84      2.132231  3 C  dxx               89      2.128081  3 C  dzz        

 Vector   41  Occ=0.000000D+00  E= 2.668698D-01
              MO Center=  1.1D-01, -1.2D+00,  1.8D-01, r^2= 1.1D+01
   Bfn.  Coefficient  Atom+Function         Bfn.  Coefficient  Atom+Function  
  ----- ------------  ---------------      ----- ------------  ---------------
   111      0.740971  6 H  px                97     -0.609352  4 H  pz         
   107     -0.558928  6 H  s                 35     -0.539685  1 I  dxz        
    53     -0.536449  2 Cl px                91      0.524917  4 H  s          
    95      0.365409  4 H  px                33     -0.352478  1 I  dxx        
    38      0.347809  1 I  dzz               75      0.258066  3 C  px         

 Vector   42  Occ=0.000000D+00  E= 2.670342D-01
              MO Center= -1.1D-01, -1.2D+00, -1.9D-01, r^2= 1.1D+01
   Bfn.  Coefficient  Atom+Function         Bfn.  Coefficient  Atom+Function  
  ----- ------------  ---------------      ----- ------------  ---------------
   105      0.755800  5 H  pz                35      0.698749  1 I  dxz        
    99      0.602293  5 H  s                 55     -0.535223  2 Cl pz         
   111      0.400390  6 H  px                91     -0.356658  4 H  s          
   103      0.355783  5 H  px                95     -0.331462  4 H  px         
    97      0.328126  4 H  pz               107     -0.308674  6 H  s          

 Vector   43  Occ=0.000000D+00  E= 3.016837D-01
              MO Center= -1.5D-03,  1.9D+00, -2.6D-03, r^2= 1.3D+01
   Bfn.  Coefficient  Atom+Function         Bfn.  Coefficient  Atom+Function  
  ----- ------------  ---------------      ----- ------------  ---------------
     5     12.865063  1 I  s                  4     -5.088857  1 I  s          
    33     -4.060906  1 I  dxx               38     -4.061774  1 I  dzz        
    36     -3.950982  1 I  dyy               43     -0.515199  2 Cl s          
    54     -0.394909  2 Cl py                71      0.299911  3 C  s          
    27     -0.276225  1 I  dxx               32     -0.276376  1 I  dzz        

 Vector   44  Occ=0.000000D+00  E= 3.085576D-01
              MO Center=  5.1D-03,  2.6D+00,  1.1D-02, r^2= 9.3D+00
   Bfn.  Coefficient  Atom+Function         Bfn.  Coefficient  Atom+Function  
  ----- ------------  ---------------      ----- ------------  ---------------
    71      4.754307  3 C  s                  5     -3.324740  1 I  s          
    19      1.566373  1 I  py                36     -1.416248  1 I  dyy        
     4      1.407280  1 I  s                 33      1.035326  1 I  dxx        
    38      1.026165  1 I  dzz               91     -0.892473  4 H  s          
   107     -0.894516  6 H  s                 43     -0.859402  2 Cl s          

 Vector   45  Occ=0.000000D+00  E= 3.089890D-01
              MO Center=  2.1D-01, -2.1D+00,  3.7D-01, r^2= 8.6D+00
   Bfn.  Coefficient  Atom+Function         Bfn.  Coefficient  Atom+Function  
  ----- ------------  ---------------      ----- ------------  ---------------
   113      1.131500  6 H  pz                99      1.105940  5 H  s          
    86     -0.820764  3 C  dxz               97      0.815074  4 H  pz         
    95      0.723050  4 H  px               104      0.580881  5 H  py         
    91     -0.546707  4 H  s                 88      0.507372  3 C  dyz        
   105      0.480391  5 H  pz                55     -0.462836  2 Cl pz         

 Vector   46  Occ=0.000000D+00  E= 3.091894D-01
              MO Center= -2.2D-01, -2.1D+00, -3.7D-01, r^2= 8.5D+00
   Bfn.  Coefficient  Atom+Function         Bfn.  Coefficient  Atom+Function  
  ----- ------------  ---------------      ----- ------------  ---------------
   103      1.146348  5 H  px               107     -0.947558  6 H  s          
    91      0.904127  4 H  s                 95      0.790544  4 H  px         
    86      0.625132  3 C  dxz              113     -0.536322  6 H  pz         
   112     -0.522047  6 H  py                85      0.516656  3 C  dxy        
   105     -0.506876  5 H  pz                96      0.494871  4 H  py         

 Vector   47  Occ=0.000000D+00  E= 3.934082D-01
              MO Center= -2.8D-03, -8.9D-01, -4.9D-03, r^2= 1.1D+01
   Bfn.  Coefficient  Atom+Function         Bfn.  Coefficient  Atom+Function  
  ----- ------------  ---------------      ----- ------------  ---------------
    70     24.181705  3 C  s                 71    -17.406147  3 C  s          
    99     -5.097231  5 H  s                 91     -5.039163  4 H  s          
   107     -5.029737  6 H  s                 84      4.266329  3 C  dxx        
    89      4.245844  3 C  dzz                5      4.100026  1 I  s          
    87      3.038909  3 C  dyy              111      2.364446  6 H  px         

 Vector   48  Occ=0.000000D+00  E= 3.962460D-01
              MO Center=  1.1D-01, -3.1D+00,  1.9D-01, r^2= 6.6D+00
   Bfn.  Coefficient  Atom+Function         Bfn.  Coefficient  Atom+Function  
  ----- ------------  ---------------      ----- ------------  ---------------
    64      0.807490  2 Cl dxz              107     -0.671074  6 H  s          
   112     -0.645975  6 H  py                96      0.584222  4 H  py         
    62      0.528635  2 Cl dxx               75      0.531036  3 C  px         
    91      0.526482  4 H  s                 67     -0.518370  2 Cl dzz        
    34     -0.335413  1 I  dxy               85      0.303307  3 C  dxy        

 Vector   49  Occ=0.000000D+00  E= 3.966646D-01
              MO Center= -9.7D-02, -3.1D+00, -1.6D-01, r^2= 6.4D+00
   Bfn.  Coefficient  Atom+Function         Bfn.  Coefficient  Atom+Function  
  ----- ------------  ---------------      ----- ------------  ---------------
    70      1.587449  3 C  s                 71     -1.121335  3 C  s          
    64     -1.059210  2 Cl dxz               91     -0.697851  4 H  s          
   107     -0.645877  6 H  s                104      0.602870  5 H  py         
    77      0.519450  3 C  pz                96     -0.464374  4 H  py         
    62      0.439222  2 Cl dxx              112     -0.410427  6 H  py         

 Vector   50  Occ=0.000000D+00  E= 4.064926D-01
              MO Center=  2.3D-02, -1.0D+00,  4.1D-02, r^2= 9.9D+00
   Bfn.  Coefficient  Atom+Function         Bfn.  Coefficient  Atom+Function  
  ----- ------------  ---------------      ----- ------------  ---------------
    99     -1.160095  5 H  s                 37      1.089905  1 I  dyz        
    86      0.837364  3 C  dxz               88      0.837832  3 C  dyz        
    91      0.623392  4 H  s                 77     -0.531183  3 C  pz         
   107      0.526751  6 H  s                 66     -0.493431  2 Cl dyz        
    64     -0.464679  2 Cl dxz              104     -0.448235  5 H  py         

 Vector   51  Occ=0.000000D+00  E= 4.067875D-01
              MO Center= -2.4D-02, -1.1D+00, -4.3D-02, r^2= 9.9D+00
   Bfn.  Coefficient  Atom+Function         Bfn.  Coefficient  Atom+Function  
  ----- ------------  ---------------      ----- ------------  ---------------
    34      1.081573  1 I  dxy              107      1.013491  6 H  s          
    91     -0.959058  4 H  s                 85      0.843522  3 C  dxy        
    86     -0.651209  3 C  dxz               75     -0.516186  3 C  px         
    63     -0.490104  2 Cl dxy               37     -0.440424  1 I  dyz        
    89      0.427376  3 C  dzz               84     -0.424153  3 C  dxx        

 Vector   52  Occ=0.000000D+00  E= 4.306265D-01
              MO Center= -4.8D-03, -2.7D+00, -8.2D-03, r^2= 6.5D+00
   Bfn.  Coefficient  Atom+Function         Bfn.  Coefficient  Atom+Function  
  ----- ------------  ---------------      ----- ------------  ---------------
    71      5.535619  3 C  s                 43     -3.161148  2 Cl s          
    70     -1.513949  3 C  s                 65      1.345608  2 Cl dyy        
    99     -0.991442  5 H  s                 91     -0.950049  4 H  s          
   107     -0.945232  6 H  s                 87     -0.909004  3 C  dyy        
    76      0.862302  3 C  py                67      0.784177  2 Cl dzz        

 Vector   53  Occ=0.000000D+00  E= 4.627050D-01
              MO Center=  5.0D-03, -2.9D+00,  8.5D-03, r^2= 8.9D+00
   Bfn.  Coefficient  Atom+Function         Bfn.  Coefficient  Atom+Function  
  ----- ------------  ---------------      ----- ------------  ---------------
    70      7.079461  3 C  s                 91     -3.172259  4 H  s          
   107     -3.180543  6 H  s                 43      3.107299  2 Cl s          
    99     -3.100946  5 H  s                 71      2.841740  3 C  s          
     5     -2.787128  1 I  s                 62     -1.577835  2 Cl dxx        
    67     -1.576756  2 Cl dzz                4      1.237828  1 I  s          

 Vector   54  Occ=0.000000D+00  E= 4.679874D-01
              MO Center=  5.8D-03, -1.3D+00,  1.0D-02, r^2= 6.0D+00
   Bfn.  Coefficient  Atom+Function         Bfn.  Coefficient  Atom+Function  
  ----- ------------  ---------------      ----- ------------  ---------------
   113      1.479926  6 H  pz               103      1.332302  5 H  px         
    95     -1.208599  4 H  px                97     -0.860053  4 H  pz         
   105     -0.619961  5 H  pz               111     -0.123490  6 H  px         

 Vector   55  Occ=0.000000D+00  E= 4.949012D-01
              MO Center= -1.5D-01, -2.2D+00, -2.5D-01, r^2= 6.8D+00
   Bfn.  Coefficient  Atom+Function         Bfn.  Coefficient  Atom+Function  
  ----- ------------  ---------------      ----- ------------  ---------------
    99      5.208424  5 H  s                 91     -2.946996  4 H  s          
    77      2.926242  3 C  pz               107     -2.483957  6 H  s          
   105      2.435781  5 H  pz                95     -1.388956  4 H  px         
   111      1.342182  6 H  px                66      1.220708  2 Cl dyz        
    75      1.183501  3 C  px               103      1.173875  5 H  px         

 Vector   56  Occ=0.000000D+00  E= 4.950552D-01
              MO Center=  1.8D-01, -2.1D+00,  3.0D-01, r^2= 6.8D+00
   Bfn.  Coefficient  Atom+Function         Bfn.  Coefficient  Atom+Function  
  ----- ------------  ---------------      ----- ------------  ---------------
   107     -4.961619  6 H  s                 91      4.659509  4 H  s          
    75      3.038504  3 C  px               111      2.512460  6 H  px         
    97     -2.181381  4 H  pz                77     -1.229393  3 C  pz         
    63      1.181091  2 Cl dxy               95      1.062352  4 H  px         
    86     -0.625017  3 C  dxz              103     -0.602193  5 H  px         

 Vector   57  Occ=0.000000D+00  E= 5.021714D-01
              MO Center=  1.4D-01, -1.1D+00,  2.3D-01, r^2= 9.8D+00
   Bfn.  Coefficient  Atom+Function         Bfn.  Coefficient  Atom+Function  
  ----- ------------  ---------------      ----- ------------  ---------------
   107     -5.292125  6 H  s                 91      4.952351  4 H  s          
    75      2.433572  3 C  px               111      2.328282  6 H  px         
    85     -2.016688  3 C  dxy               97     -1.673297  4 H  pz         
    95      1.402564  4 H  px                63     -1.033666  2 Cl dxy        
    77     -0.973591  3 C  pz                34     -0.929332  1 I  dxy        

 Vector   58  Occ=0.000000D+00  E= 5.023363D-01
              MO Center= -1.4D-01, -1.0D+00, -2.3D-01, r^2= 9.7D+00
   Bfn.  Coefficient  Atom+Function         Bfn.  Coefficient  Atom+Function  
  ----- ------------  ---------------      ----- ------------  ---------------
    99      6.104151  5 H  s                 91     -3.451015  4 H  s          
   107     -2.872775  6 H  s                 77      2.562313  3 C  pz         
   105      2.447110  5 H  pz                88     -2.057788  3 C  dyz        
    97      1.397726  4 H  pz               111      1.232527  6 H  px         
   103      1.117305  5 H  px                75      1.026096  3 C  px         

 Vector   59  Occ=0.000000D+00  E= 5.045035D-01
              MO Center= -1.6D-02, -2.0D+00, -2.8D-02, r^2= 1.0D+01
   Bfn.  Coefficient  Atom+Function         Bfn.  Coefficient  Atom+Function  
  ----- ------------  ---------------      ----- ------------  ---------------
    70     10.483503  3 C  s                 99     -4.306419  5 H  s          
    91     -4.011012  4 H  s                107     -3.981264  6 H  s          
    71      3.378689  3 C  s                  5     -2.557972  1 I  s          
    43     -2.486158  2 Cl s                 76     -1.983577  3 C  py         
   111      1.972149  6 H  px               105     -1.939904  5 H  pz         

 Vector   60  Occ=0.000000D+00  E= 5.273811D-01
              MO Center= -4.0D-03, -4.3D-01, -6.9D-03, r^2= 1.0D+01
   Bfn.  Coefficient  Atom+Function         Bfn.  Coefficient  Atom+Function  
  ----- ------------  ---------------      ----- ------------  ---------------
    71     -9.958141  3 C  s                 70      9.396547  3 C  s          
    43      4.123457  2 Cl s                 87      3.709213  3 C  dyy        
    84      2.403580  3 C  dxx               89      2.407821  3 C  dzz        
     5      2.339684  1 I  s                 91     -1.977164  4 H  s          
   107     -1.986959  6 H  s                 99     -1.888745  5 H  s          

 Vector   61  Occ=0.000000D+00  E= 5.570696D-01
              MO Center=  6.4D-02, -1.4D+00,  1.1D-01, r^2= 8.2D+00
   Bfn.  Coefficient  Atom+Function         Bfn.  Coefficient  Atom+Function  
  ----- ------------  ---------------      ----- ------------  ---------------
   107     -4.231776  6 H  s                 91      4.037154  4 H  s          
    85     -2.533268  3 C  dxy               86      2.225358  3 C  dxz        
   112      1.669379  6 H  py                96     -1.566604  4 H  py         
   103      1.492744  5 H  px                89     -1.462108  3 C  dzz        
    84      1.452557  3 C  dxx               95      1.103053  4 H  px         

 Vector   62  Occ=0.000000D+00  E= 5.576798D-01
              MO Center= -5.1D-02, -1.4D+00, -8.1D-02, r^2= 8.2D+00
   Bfn.  Coefficient  Atom+Function         Bfn.  Coefficient  Atom+Function  
  ----- ------------  ---------------      ----- ------------  ---------------
    99      5.020877  5 H  s                 86     -2.967470  3 C  dxz        
    88     -2.508412  3 C  dyz               91     -2.414364  4 H  s          
   107     -2.005072  6 H  s                104     -1.793268  5 H  py         
   113      1.491847  6 H  pz                89     -1.180707  3 C  dzz        
    97      1.101217  4 H  pz                84      1.084828  3 C  dxx        

 Vector   63  Occ=0.000000D+00  E= 5.590115D-01
              MO Center= -7.7D-03, -2.7D+00, -1.5D-02, r^2= 1.3D+01
   Bfn.  Coefficient  Atom+Function         Bfn.  Coefficient  Atom+Function  
  ----- ------------  ---------------      ----- ------------  ---------------
    70     13.020629  3 C  s                 91     -5.416226  4 H  s          
   107     -5.421965  6 H  s                 99     -5.226673  5 H  s          
    71      4.104708  3 C  s                 43     -2.987870  2 Cl s          
    54     -2.231719  2 Cl py                87      2.077020  3 C  dyy        
   111      1.629507  6 H  px               104     -1.516820  5 H  py         

 Vector   64  Occ=0.000000D+00  E= 6.101926D-01
              MO Center=  9.5D-02, -6.8D-01,  1.8D-01, r^2= 8.1D+00
   Bfn.  Coefficient  Atom+Function         Bfn.  Coefficient  Atom+Function  
  ----- ------------  ---------------      ----- ------------  ---------------
    99      9.369630  5 H  s                 86     -6.648247  3 C  dxz        
    91     -5.055096  4 H  s                107     -4.565521  6 H  s          
   113      3.601696  6 H  pz                88      3.494382  3 C  dyz        
   104      3.226991  5 H  py                97      2.822230  4 H  pz         
    84      2.682480  3 C  dxx               89     -2.596977  3 C  dzz        

 Vector   65  Occ=0.000000D+00  E= 6.102527D-01
              MO Center= -9.4D-02, -6.9D-01, -1.7D-01, r^2= 8.1D+00
   Bfn.  Coefficient  Atom+Function         Bfn.  Coefficient  Atom+Function  
  ----- ------------  ---------------      ----- ------------  ---------------
   107     -8.366592  6 H  s                 91      8.059187  4 H  s          
    86      5.291029  3 C  dxz              103      3.675880  5 H  px         
    85      3.520179  3 C  dxy               84      3.337424  3 C  dxx        
    89     -3.326025  3 C  dzz              112     -2.827097  6 H  py         
    96      2.731356  4 H  py                95      2.684281  4 H  px         

 Vector   66  Occ=0.000000D+00  E= 6.467485D-01
              MO Center=  2.1D-04, -1.2D+00,  4.3D-04, r^2= 7.6D+00
   Bfn.  Coefficient  Atom+Function         Bfn.  Coefficient  Atom+Function  
  ----- ------------  ---------------      ----- ------------  ---------------
    70     58.406138  3 C  s                 91    -20.612217  4 H  s          
    99    -20.681636  5 H  s                107    -20.603456  6 H  s          
    71    -16.667952  3 C  s                 84     10.309675  3 C  dxx        
    89     10.331296  3 C  dzz              111      5.115016  6 H  px         
   105     -4.664311  5 H  pz                97      4.199207  4 H  pz         

 Vector   67  Occ=0.000000D+00  E= 6.715521D-01
              MO Center=  1.5D-02,  1.5D+00,  1.6D-02, r^2= 6.6D+00
   Bfn.  Coefficient  Atom+Function         Bfn.  Coefficient  Atom+Function  
  ----- ------------  ---------------      ----- ------------  ---------------
    99      4.944148  5 H  s                 91     -3.055908  4 H  s          
    86     -2.355609  3 C  dxz              107     -1.828853  6 H  s          
    17      1.643480  1 I  pz                77      1.495499  3 C  pz         
    14     -1.435090  1 I  pz               105      1.394037  5 H  pz         
    97      1.321589  4 H  pz               113      1.246927  6 H  pz         

 Vector   68  Occ=0.000000D+00  E= 6.715556D-01
              MO Center= -1.7D-02,  1.5D+00, -1.9D-02, r^2= 6.6D+00
   Bfn.  Coefficient  Atom+Function         Bfn.  Coefficient  Atom+Function  
  ----- ------------  ---------------      ----- ------------  ---------------
   107      4.627240  6 H  s                 91     -3.927667  4 H  s          
    15     -1.643294  1 I  px                75     -1.493692  3 C  px         
    86     -1.485894  3 C  dxz               12      1.434751  1 I  px         
   111     -1.393935  6 H  px                95     -1.320135  4 H  px         
   103     -1.262362  5 H  px                84     -1.185860  3 C  dxx        

 Vector   69  Occ=0.000000D+00  E= 7.442882D-01
              MO Center=  6.7D-03,  2.0D+00,  9.4D-03, r^2= 3.1D+00
   Bfn.  Coefficient  Atom+Function         Bfn.  Coefficient  Atom+Function  
  ----- ------------  ---------------      ----- ------------  ---------------
    29      1.627415  1 I  dxz               35     -0.855560  1 I  dxz        
    99      0.813735  5 H  s                 23     -0.584133  1 I  dxz        
    27     -0.575948  1 I  dxx               31     -0.576426  1 I  dyz        
    32      0.577241  1 I  dzz               86     -0.544074  3 C  dxz        
    91     -0.465497  4 H  s                107     -0.345185  6 H  s          

 Vector   70  Occ=0.000000D+00  E= 7.443168D-01
              MO Center= -8.6D-03,  2.0D+00, -1.3D-02, r^2= 3.1D+00
   Bfn.  Coefficient  Atom+Function         Bfn.  Coefficient  Atom+Function  
  ----- ------------  ---------------      ----- ------------  ---------------
    29      1.150888  1 I  dxz               27      0.812115  1 I  dxx        
    32     -0.812495  1 I  dzz              107      0.745501  6 H  s          
    91     -0.676871  4 H  s                 35     -0.604994  1 I  dxz        
    28      0.586631  1 I  dxy               33     -0.427152  1 I  dxx        
    38      0.426874  1 I  dzz               23     -0.413089  1 I  dxz        

 Vector   71  Occ=0.000000D+00  E= 7.633027D-01
              MO Center= -1.0D-03,  2.0D+00, -1.7D-03, r^2= 7.0D+00
   Bfn.  Coefficient  Atom+Function         Bfn.  Coefficient  Atom+Function  
  ----- ------------  ---------------      ----- ------------  ---------------
     5     11.098198  1 I  s                 33     -4.285324  1 I  dxx        
    38     -4.285273  1 I  dzz                3     -4.085709  1 I  s          
    36     -3.831486  1 I  dyy                4      2.252274  1 I  s          
    71     -1.379923  3 C  s                 70     -1.257844  3 C  s          
    30     -1.236091  1 I  dyy               27     -0.886000  1 I  dxx        

 Vector   72  Occ=0.000000D+00  E= 7.996466D-01
              MO Center= -1.0D-02,  1.5D+00, -1.3D-02, r^2= 7.0D+00
   Bfn.  Coefficient  Atom+Function         Bfn.  Coefficient  Atom+Function  
  ----- ------------  ---------------      ----- ------------  ---------------
    70     23.919512  3 C  s                 71    -12.918335  3 C  s          
    99     -6.883450  5 H  s                 91     -6.795678  4 H  s          
   107     -6.768954  6 H  s                 89      4.409111  3 C  dzz        
    84      4.232360  3 C  dxx                5      2.372975  1 I  s          
    16     -2.160452  1 I  py               111      2.109539  6 H  px         

 Vector   73  Occ=0.000000D+00  E= 7.999405D-01
              MO Center= -1.9D-02,  1.3D+00, -4.3D-02, r^2= 5.5D+00
   Bfn.  Coefficient  Atom+Function         Bfn.  Coefficient  Atom+Function  
  ----- ------------  ---------------      ----- ------------  ---------------
    85      2.547132  3 C  dxy               28      1.735459  1 I  dxy        
   112     -1.685869  6 H  py                96      1.535133  4 H  py         
    86      1.384209  3 C  dxz               88     -1.063951  3 C  dyz        
   103      1.010153  5 H  px                84      0.995563  3 C  dxx        
   107     -0.837288  6 H  s                 34     -0.827800  1 I  dxy        

 Vector   74  Occ=0.000000D+00  E= 8.000630D-01
              MO Center=  3.1D-02,  1.3D+00,  5.9D-02, r^2= 5.6D+00
   Bfn.  Coefficient  Atom+Function         Bfn.  Coefficient  Atom+Function  
  ----- ------------  ---------------      ----- ------------  ---------------
    88      2.533514  3 C  dyz               70      2.250948  3 C  s          
    86     -1.781019  3 C  dxz               31      1.732091  1 I  dyz        
   104      1.704699  5 H  py                71     -1.226969  3 C  s          
    96     -1.144623  4 H  py                84      1.092210  3 C  dxx        
    85      1.051605  3 C  dxy               91     -1.041792  4 H  s          

 Vector   75  Occ=0.000000D+00  E= 8.257390D-01
              MO Center= -5.9D-04,  2.0D-01, -1.1D-03, r^2= 8.1D+00
   Bfn.  Coefficient  Atom+Function         Bfn.  Coefficient  Atom+Function  
  ----- ------------  ---------------      ----- ------------  ---------------
    70     14.367951  3 C  s                 71     -7.611821  3 C  s          
    91     -4.160557  4 H  s                107     -4.165260  6 H  s          
    99     -4.118366  5 H  s                 87      3.735524  3 C  dyy        
    84      2.920186  3 C  dxx               89      2.896800  3 C  dzz        
     5      2.565387  1 I  s                 76     -2.145822  3 C  py         

 Vector   76  Occ=0.000000D+00  E= 9.702536D-01
              MO Center=  1.4D-01, -1.5D+00,  2.6D-01, r^2= 4.6D+00
   Bfn.  Coefficient  Atom+Function         Bfn.  Coefficient  Atom+Function  
  ----- ------------  ---------------      ----- ------------  ---------------
    86      2.169654  3 C  dxz               84      1.392949  3 C  dxx        
    89     -1.392460  3 C  dzz               97      1.145050  4 H  pz         
   111     -1.103251  6 H  px               106     -1.016008  6 H  s          
    90      0.970754  4 H  s                107      0.763050  6 H  s          
   103      0.728129  5 H  px                91     -0.722906  4 H  s          

 Vector   77  Occ=0.000000D+00  E= 9.703228D-01
              MO Center= -1.4D-01, -1.5D+00, -2.4D-01, r^2= 4.6D+00
   Bfn.  Coefficient  Atom+Function         Bfn.  Coefficient  Atom+Function  
  ----- ------------  ---------------      ----- ------------  ---------------
    86      2.782227  3 C  dxz               98     -1.146362  5 H  s          
   105      1.148241  5 H  pz                84     -1.084333  3 C  dxx        
    89      1.083210  3 C  dzz               95     -0.968832  4 H  px         
    99      0.831693  5 H  s                113     -0.673170  6 H  pz         
   111      0.667285  6 H  px               104     -0.648346  5 H  py         

 Vector   78  Occ=0.000000D+00  E= 1.054057D+00
              MO Center=  2.2D-02, -9.0D-01,  5.4D-02, r^2= 3.7D+00
   Bfn.  Coefficient  Atom+Function         Bfn.  Coefficient  Atom+Function  
  ----- ------------  ---------------      ----- ------------  ---------------
    99     12.521795  5 H  s                 77      6.803815  3 C  pz         
   107     -6.545498  6 H  s                 91     -5.959635  4 H  s          
    75      3.387187  3 C  px               105      3.104116  5 H  pz         
    86     -2.710747  3 C  dxz               97      1.792039  4 H  pz         
   111      1.723893  6 H  px               103      1.467992  5 H  px         

 Vector   79  Occ=0.000000D+00  E= 1.054066D+00
              MO Center= -1.7D-02, -9.0D-01, -4.4D-02, r^2= 3.7D+00
   Bfn.  Coefficient  Atom+Function         Bfn.  Coefficient  Atom+Function  
  ----- ------------  ---------------      ----- ------------  ---------------
    91     11.006891  4 H  s                107    -10.667813  6 H  s          
    75      6.805872  3 C  px                77     -3.387872  3 C  pz         
   111      2.961853  6 H  px                86      2.416762  3 C  dxz        
    97     -2.232622  4 H  pz                95      2.083725  4 H  px         
    84      1.355419  3 C  dxx               89     -1.355454  3 C  dzz        

 Vector   80  Occ=0.000000D+00  E= 1.104826D+00
              MO Center=  2.6D-03, -1.6D+00,  4.4D-03, r^2= 4.4D+00
   Bfn.  Coefficient  Atom+Function         Bfn.  Coefficient  Atom+Function  
  ----- ------------  ---------------      ----- ------------  ---------------
    70     38.740512  3 C  s                 91    -15.775598  4 H  s          
    99    -15.782729  5 H  s                107    -15.775067  6 H  s          
    76     -4.420113  3 C  py               111      3.923124  6 H  px         
   105     -3.575409  5 H  pz                84      3.428980  3 C  dxx        
    89      3.417098  3 C  dzz               97      3.227834  4 H  pz         

 Vector   81  Occ=0.000000D+00  E= 1.135142D+00
              MO Center=  2.2D-03, -1.8D-01,  3.7D-03, r^2= 4.5D+00
   Bfn.  Coefficient  Atom+Function         Bfn.  Coefficient  Atom+Function  
  ----- ------------  ---------------      ----- ------------  ---------------
    70     18.488065  3 C  s                 71    -10.837151  3 C  s          
    91     -5.712794  4 H  s                 99     -5.691151  5 H  s          
   107     -5.715544  6 H  s                 84      4.193616  3 C  dxx        
    89      4.174259  3 C  dzz               76     -3.925202  3 C  py         
     5      2.585565  1 I  s                  4      1.681073  1 I  s          

 Vector   82  Occ=0.000000D+00  E= 1.179173D+00
              MO Center= -2.4D-03, -4.0D+00, -4.2D-03, r^2= 1.5D+00
   Bfn.  Coefficient  Atom+Function         Bfn.  Coefficient  Atom+Function  
  ----- ------------  ---------------      ----- ------------  ---------------
    58      1.413975  2 Cl dxz               64     -0.726993  2 Cl dxz        
    56     -0.551588  2 Cl dxx               61      0.553467  2 Cl dzz        
    86     -0.380233  3 C  dxz               67     -0.286915  2 Cl dzz        
    60      0.285236  2 Cl dyz               62      0.281254  2 Cl dxx        
   113      0.250796  6 H  pz                77     -0.245247  3 C  pz         

 Vector   83  Occ=0.000000D+00  E= 1.179214D+00
              MO Center=  1.0D-03, -4.0D+00,  1.9D-03, r^2= 1.5D+00
   Bfn.  Coefficient  Atom+Function         Bfn.  Coefficient  Atom+Function  
  ----- ------------  ---------------      ----- ------------  ---------------
    58      1.105032  2 Cl dxz               56      0.706860  2 Cl dxx        
    61     -0.707090  2 Cl dzz               64     -0.568442  2 Cl dxz        
    62     -0.363276  2 Cl dxx               67      0.364086  2 Cl dzz        
    86     -0.293130  3 C  dxz               57     -0.285948  2 Cl dxy        
   103     -0.260756  5 H  px                75      0.243933  3 C  px         

 Vector   84  Occ=0.000000D+00  E= 1.213051D+00
              MO Center=  6.9D-03, -4.0D+00,  9.3D-03, r^2= 2.0D+00
   Bfn.  Coefficient  Atom+Function         Bfn.  Coefficient  Atom+Function  
  ----- ------------  ---------------      ----- ------------  ---------------
    99      2.640824  5 H  s                 60      1.656624  2 Cl dyz        
    91     -1.373896  4 H  s                 66     -1.172950  2 Cl dyz        
    86     -1.148142  3 C  dxz               77      1.116324  3 C  pz         
   107     -1.000638  6 H  s                104      0.839187  5 H  py         
   105      0.757772  5 H  pz                97      0.662708  4 H  pz         

 Vector   85  Occ=0.000000D+00  E= 1.213070D+00
              MO Center= -8.8D-03, -4.0D+00, -1.3D-02, r^2= 2.0D+00
   Bfn.  Coefficient  Atom+Function         Bfn.  Coefficient  Atom+Function  
[...]
                  VWN I RPA Correlation Functional  0.190 local    

             Grid Information
             ----------------
          Grid used for XC integration:  medium    
          Radial quadrature: Mura-Knowles        
          Angular quadrature: Lebedev. 
          Tag              B.-S. Rad. Rad. Pts. Rad. Cut. Ang. Pts.
          ---              ---------- --------- --------- ---------
          I                   1.40      123          15.0       590
          Cl                  1.00       88          17.0       590
          C                   0.70       49          12.0       434
          H                   0.35       45          11.0       434
          Grid pruning is: on 
          Number of quadrature shells:   305
          Spatial weights used:  Erf1

          Convergence Information
          -----------------------
          Convergence aids based upon iterative change in 
          total energy or number of iterations. 
          Levelshifting, if invoked, occurs when the 
          HOMO/LUMO gap drops below (HL_TOL):  1.00D-02
          DIIS, if invoked, will attempt to extrapolate 
          using up to (NFOCK): 10 stored Fock matrices.

                    Damping( 0%)  Levelshifting(0.5)       DIIS
                  --------------- ------------------- ---------------
          dE  on:    start            ASAP                start   
          dE off:    2 iters         50 iters            50 iters 


      Screening Tolerance Information
      -------------------------------
          Density screening/tol_rho:  1.00D-10
          AO Gaussian exp screening on grid/accAOfunc:  14
          CD Gaussian exp screening on grid/accCDfunc:  20
          XC Gaussian exp screening on grid/accXCfunc:  20
          Schwarz screening/accCoul:  1.00D-08



                            NWChem DFT Gradient Module
                            --------------------------


                                       Title



  charge          =  -1.00
  wavefunction    = closed shell

  Rotation of axis 
  Using symmetry


                         DFT ENERGY GRADIENTS

    atom               coordinates                        gradient
                 x          y          z           x          y          z
   1 I       0.000000   0.000000   2.591962    0.000000   0.000000  -0.001151
   2 Cl      0.000000   0.000000  -7.336469    0.000000   0.000000   0.000928
   3 C       0.000000   0.000000  -1.667291    0.000000   0.000000   0.000284
   4 H       1.399397   1.399397  -2.233174    0.000006   0.000006  -0.000020
   5 H       0.512215  -1.911612  -2.233174    0.000002  -0.000008  -0.000020
   6 H      -1.911612   0.512215  -2.233174   -0.000008   0.000002  -0.000020

                 ----------------------------------------
                 |  Time  |  1-e(secs)   |  2-e(secs)   |
                 ----------------------------------------
                 |  CPU   |       0.02   |       3.79   |
                 ----------------------------------------
                 |  WALL  |       0.02   |       3.79   |
                 ----------------------------------------

  Step       Energy      Delta E   Gmax     Grms     Xrms     Xmax   Walltime
  ---- ---------------- -------- -------- -------- -------- -------- --------
@    2    -797.85983637 -1.2D-07  0.00001  0.00001  0.00028  0.00049    301.3
                                     ok       ok       ok       ok  

  Internal coordinate gradient before constraints


                                Z-matrix (autoz)
                                -------- 

 Units are Angstrom for bonds and degrees for angles

  Constants are marked with an asterisk (*).

      Type          Name      I     J     K     L     M      Value     Gradient
      ----------- --------  ----- ----- ----- ----- ----- ---------- ----------
    1*Stretch      ci          1     3                       2.25390   -0.00115
    2*Stretch      ccl         2     3                       3.00000   -0.00093
    3 Stretch                  3     4                       1.08924    0.00001
    4 Stretch                  3     5                       1.08924    0.00001
    5 Stretch                  3     6                       1.08924    0.00001
    6 Bend                     1     3     4               105.95720    0.00001
    7 Bend                     1     3     5               105.95720    0.00001
    8 Bend                     1     3     6               105.95720    0.00001
    9 Bend                     2     3     4                74.04280   -0.00001
   10 Bend                     2     3     5                74.04280   -0.00001
   11 Bend                     2     3     6                74.04280   -0.00001
   12 Bend                     4     3     5               112.74492   -0.00001
   13 Bend                     4     3     6               112.74492   -0.00001
   14 Bend                     5     3     6               112.74492   -0.00001

  Internal coordinate gradient after constraints


                                Z-matrix (autoz)
                                -------- 

 Units are Angstrom for bonds and degrees for angles

  Constants are marked with an asterisk (*).

      Type          Name      I     J     K     L     M      Value     Gradient
      ----------- --------  ----- ----- ----- ----- ----- ---------- ----------
    1*Stretch      ci          1     3                       2.25390    0.00000
    2*Stretch      ccl         2     3                       3.00000    0.00000
    3 Stretch                  3     4                       1.08924    0.00001
    4 Stretch                  3     5                       1.08924    0.00001
    5 Stretch                  3     6                       1.08924    0.00001
    6 Bend                     1     3     4               105.95720    0.00001
    7 Bend                     1     3     5               105.95720    0.00001
    8 Bend                     1     3     6               105.95720    0.00001
    9 Bend                     2     3     4                74.04280   -0.00001
   10 Bend                     2     3     5                74.04280   -0.00001
   11 Bend                     2     3     6                74.04280   -0.00001
   12 Bend                     4     3     5               112.74492   -0.00001
   13 Bend                     4     3     6               112.74492   -0.00001
   14 Bend                     5     3     6               112.74492   -0.00001


      ----------------------
      Optimization converged
      ----------------------


  Step       Energy      Delta E   Gmax     Grms     Xrms     Xmax   Walltime
  ---- ---------------- -------- -------- -------- -------- -------- --------
@    2    -797.85983637 -1.2D-07  0.00001  0.00001  0.00028  0.00049    301.3
                                     ok       ok       ok       ok  

  Internal coordinate gradient before constraints


                                Z-matrix (autoz)
                                -------- 

 Units are Angstrom for bonds and degrees for angles

  Constants are marked with an asterisk (*).

      Type          Name      I     J     K     L     M      Value     Gradient
      ----------- --------  ----- ----- ----- ----- ----- ---------- ----------
    1*Stretch      ci          1     3                       2.25390   -0.00115
    2*Stretch      ccl         2     3                       3.00000   -0.00093
    3 Stretch                  3     4                       1.08924    0.00001
    4 Stretch                  3     5                       1.08924    0.00001
    5 Stretch                  3     6                       1.08924    0.00001
    6 Bend                     1     3     4               105.95720    0.00001
    7 Bend                     1     3     5               105.95720    0.00001
    8 Bend                     1     3     6               105.95720    0.00001
    9 Bend                     2     3     4                74.04280   -0.00001
   10 Bend                     2     3     5                74.04280   -0.00001
   11 Bend                     2     3     6                74.04280   -0.00001
   12 Bend                     4     3     5               112.74492   -0.00001
   13 Bend                     4     3     6               112.74492   -0.00001
   14 Bend                     5     3     6               112.74492   -0.00001

  Internal coordinate gradient after constraints


                                Z-matrix (autoz)
                                -------- 

 Units are Angstrom for bonds and degrees for angles

  Constants are marked with an asterisk (*).

      Type          Name      I     J     K     L     M      Value     Gradient
      ----------- --------  ----- ----- ----- ----- ----- ---------- ----------
    1*Stretch      ci          1     3                       2.25390    0.00000
    2*Stretch      ccl         2     3                       3.00000    0.00000
    3 Stretch                  3     4                       1.08924    0.00001
    4 Stretch                  3     5                       1.08924    0.00001
    5 Stretch                  3     6                       1.08924    0.00001
    6 Bend                     1     3     4               105.95720    0.00001
    7 Bend                     1     3     5               105.95720    0.00001
    8 Bend                     1     3     6               105.95720    0.00001
    9 Bend                     2     3     4                74.04280   -0.00001
   10 Bend                     2     3     5                74.04280   -0.00001
   11 Bend                     2     3     6                74.04280   -0.00001
   12 Bend                     4     3     5               112.74492   -0.00001
   13 Bend                     4     3     6               112.74492   -0.00001
   14 Bend                     5     3     6               112.74492   -0.00001



                         Geometry "geometry" -> "geometry"
                         ---------------------------------

 Output coordinates in angstroms (scale by  1.889725989 to convert to a.u.)

  No.       Tag          Charge          X              Y              Z
 ---- ---------------- ---------- -------------- -------------- --------------
    1 I                   53.0000     0.00000000     0.00000000     1.37160734
    2 Cl                  17.0000     0.00000000     0.00000000    -3.88229266
    3 C                    6.0000     0.00000000     0.00000000    -0.88229266
    4 H                    1.0000     0.74052893     0.74052893    -1.18174485
    5 H                    1.0000     0.27105240    -1.01158133    -1.18174485
    6 H                    1.0000    -1.01158133     0.27105240    -1.18174485

      Atomic Mass 
      ----------- 

      I                126.900400
      Cl                34.968850
      C                 12.000000
      H                  1.007825


 Effective nuclear repulsion energy (a.u.)     232.8276256019

            Nuclear Dipole moment (a.u.) 
            ----------------------------
        X                 Y               Z
 ---------------- ---------------- ----------------
     0.0000000000     0.0000000000    -4.0492606213

      Symmetry information
      --------------------

 Group name             C3v       
 Group number             17
 Group order               6
 No. of unique centers     4

      Symmetry unique atoms

     1    2    3    4


                Final and change from initial internal coordinates
                --------------------------------------------------



                                Z-matrix (autoz)
                                -------- 

 Units are Angstrom for bonds and degrees for angles

  Constants are marked with an asterisk (*).

      Type          Name      I     J     K     L     M      Value       Change
      ----------- --------  ----- ----- ----- ----- ----- ---------- ----------
    1*Stretch      ci          1     3                       2.25390   -0.00000
    2*Stretch      ccl         2     3                       3.00000   -0.00000
    3 Stretch                  3     4                       1.08924    0.00095
    4 Stretch                  3     5                       1.08924    0.00095
    5 Stretch                  3     6                       1.08924    0.00095
    6 Bend                     1     3     4               105.95720    1.71794
    7 Bend                     1     3     5               105.95720    1.71794
    8 Bend                     1     3     6               105.95720    1.71794
    9 Bend                     2     3     4                74.04280   -1.71794
   10 Bend                     2     3     5                74.04280   -1.71794
   11 Bend                     2     3     6                74.04280   -1.71794
   12 Bend                     4     3     5               112.74492   -1.41262
   13 Bend                     4     3     6               112.74492   -1.41262
   14 Bend                     5     3     6               112.74492   -1.41262

 ==============================================================================
                                internuclear distances
 ------------------------------------------------------------------------------
       center one      |      center two      | atomic units |  angstroms
 ------------------------------------------------------------------------------
    3 C                |   1 I                |     4.25925  |     2.25390
    4 H                |   3 C                |     2.05836  |     1.08924
    5 H                |   3 C                |     2.05836  |     1.08924
    6 H                |   3 C                |     2.05836  |     1.08924
 ------------------------------------------------------------------------------
                         number of included internuclear distances:          4
 ==============================================================================



 ==============================================================================
                                 internuclear angles
 ------------------------------------------------------------------------------
        center 1       |       center 2       |       center 3       |  degrees
 ------------------------------------------------------------------------------
    1 I                |   3 C                |   4 H                |   105.96
    1 I                |   3 C                |   5 H                |   105.96
    1 I                |   3 C                |   6 H                |   105.96
    4 H                |   3 C                |   5 H                |   112.74
    4 H                |   3 C                |   6 H                |   112.74
    5 H                |   3 C                |   6 H                |   112.74
 ------------------------------------------------------------------------------
                            number of included internuclear angles:          6
 ==============================================================================



 
 Scanning NWChem input - results from step  10
 
(-797.8598363656745, [0.0, 0.0, -0.0011514885601420916, 5.782411586589357e-19, 5.782411586589357e-19, 0.00092823951069523, 3.700743415417188e-17, 1.850371707708594e-17, 0.0002838459158482909, 5.524579254826781e-06, 5.524579254826781e-06, -2.0198955398009755e-05, 2.0221363524891567e-06, -7.546715607320564e-06, -2.0198955398009755e-05, -7.546715607320564e-06, 2.0221363525030345e-06, -2.0198955398009755e-05])
 

 Task  times  cpu:      300.8s     wall:      301.2s


                                NWChem Input Module
                                -------------------


 Summary of allocated global arrays
-----------------------------------
  No active global arrays


MA_summarize_allocated_blocks: starting scan ...
MA_summarize_allocated_blocks: scan completed: 0 heap blocks, 0 stack blocks
MA usage statistics:

	allocation statistics:
					      heap	     stack
					      ----	     -----
	current number of blocks	         0	         0
	maximum number of blocks	        42	        62
	current total bytes		         0	         0
	maximum total bytes		 270702952	  33245944
	maximum total K-bytes		    270703	     33246
	maximum total M-bytes		       271	        34


                                     CITATION
                                     --------
                Please cite the following reference when publishing
                           results obtained with NWChem:

          E. Apra, E. J. Bylaska, W. A. de Jong, N. Govind, K. Kowalski,
       T. P. Straatsma, M. Valiev, H. J. J. van Dam, Y. Alexeev, J. Anchell,
       V. Anisimov, F. W. Aquino, R. Atta-Fynn, J. Autschbach, N. P. Bauman,
     J. C. Becca, D. E. Bernholdt, K. Bhaskaran-Nair, S. Bogatko, P. Borowski,
         J. Boschen, J. Brabec, A. Bruner, E. Cauet, Y. Chen, G. N. Chuev,
      C. J. Cramer, J. Daily, M. J. O. Deegan, T. H. Dunning Jr., M. Dupuis,
   K. G. Dyall, G. I. Fann, S. A. Fischer, A. Fonari, H. Fruchtl, L. Gagliardi,
      J. Garza, N. Gawande, S. Ghosh, K. Glaesemann, A. W. Gotz, J. Hammond,
       V. Helms, E. D. Hermes, K. Hirao, S. Hirata, M. Jacquelin, L. Jensen,
   B. G. Johnson, H. Jonsson, R. A. Kendall, M. Klemm, R. Kobayashi, V. Konkov,
      S. Krishnamoorthy, M. Krishnan, Z. Lin, R. D. Lins, R. J. Littlefield,
      A. J. Logsdail, K. Lopata, W. Ma, A. V. Marenich, J. Martin del Campo,
   D. Mejia-Rodriguez, J. E. Moore, J. M. Mullin, T. Nakajima, D. R. Nascimento,
    J. A. Nichols, P. J. Nichols, J. Nieplocha, A. Otero-de-la-Roza, B. Palmer,
    A. Panyala, T. Pirojsirikul, B. Peng, R. Peverati, J. Pittner, L. Pollack,
   R. M. Richard, P. Sadayappan, G. C. Schatz, W. A. Shelton, D. W. Silverstein,
   D. M. A. Smith, T. A. Soares, D. Song, M. Swart, H. L. Taylor, G. S. Thomas,
            V. Tipparaju, D. G. Truhlar, K. Tsemekhman, T. Van Voorhis,
      A. Vazquez-Mayagoitia, P. Verma, O. Villa, A. Vishnu, K. D. Vogiatzis,
        D. Wang, J. H. Weare, M. J. Williamson, T. L. Windus, K. Wolinski,
        A. T. Wong, Q. Wu, C. Yang, Q. Yu, M. Zacharias, Z. Zhang, Y. Zhao,
                                and R. J. Harrison
                        "NWChem: Past, present, and future
                         J. Chem. Phys. 152, 184102 (2020)
                               doi:10.1063/5.0004997

                                      AUTHORS
                                      -------
  E. Apra, E. J. Bylaska, N. Govind, K. Kowalski, M. Valiev, D. Mejia-Rodriguez,
       A. Kunitsa, N. P. Bauman, A. Panyala, W. A. de Jong, T. P. Straatsma,
   H. J. J. van Dam, D. Wang, T. L. Windus, J. Hammond, J. Autschbach, A. Woods,
    K. Bhaskaran-Nair, J. Brabec, K. Lopata, S. A. Fischer, S. Krishnamoorthy,
     M. Jacquelin, W. Ma, M. Klemm, O. Villa, Y. Chen, V. Anisimov, F. Aquino,
     S. Hirata, M. T. Hackler, E. Hermes, L. Jensen, J. E. Moore, J. C. Becca,
      V. Konjkov, T. Risthaus, M. Malagoli, A. Marenich, A. Otero-de-la-Roza,
        J. Mullin, P. Nichols, R. Peverati, J. Pittner, Y. Zhao, P.-D. Fan,
        A. Fonari, M. J. Williamson, R. J. Harrison, J. R. Rehr, M. Dupuis,
     D. Silverstein, D. M. A. Smith, J. Nieplocha, V. Tipparaju, M. Krishnan,
     B. E. Van Kuiken, A. Vazquez-Mayagoitia, M. Swart, Q. Wu, T. Van Voorhis,
     A. A. Auer, M. Nooijen, L. D. Crosby, E. Brown, G. Cisneros, G. I. Fann,
   H. Fruchtl, J. Garza, K. Hirao, R. A. Kendall, J. A. Nichols, K. Tsemekhman,
    K. Wolinski, J. Anchell, D. E. Bernholdt, P. Borowski, T. Clark, D. Clerc,
   H. Dachsel, M. J. O. Deegan, K. Dyall, D. Elwood, E. Glendening, M. Gutowski,
   A. C. Hess, J. Jaffe, B. G. Johnson, J. Ju, R. Kobayashi, R. Kutteh, Z. Lin,
   R. Littlefield, X. Long, B. Meng, T. Nakajima, S. Niu, L. Pollack, M. Rosing,
   K. Glaesemann, G. Sandrone, M. Stave, H. Taylor, G. Thomas, J. H. van Lenthe,
                               A. T. Wong, Z. Zhang.

 Total times  cpu:      300.8s     wall:      301.3s
