 argument  1 = LIIC_SN1_CI.nw



============================== echo of input deck ==============================
echo

start molecule

title "Title"
charge -1

geometry units angstroms print xyz autosym
 I                     0.00000000     0.00000000     1.88716539
 Cl                    0.00000000     0.00000000    -3.03660307
 C                     0.00000000     0.00000000    -1.11283396
 H                     0.74342354     0.74342354    -0.83714093
 H                    -1.01553544     0.27211190    -0.83714093
 H                     0.27211190    -1.01553544    -0.83714093
end

basis
  * library def2-svpd
end

ecp
 I library "def2-ecp"
end

dft
xc b3lyp
mult 1
end

driver
default
maxiter 99
end

python
from nwgeom import *
geom = '''
    geometry noprint adjust
        zcoord
            bond  2 3   %f ccl  constant
        end
    end
'''
x0=3.000
y0=1.801
xmax=2.171
ymax=3.000
npts=20
xmin = x0 - (xmax-x0)/npts
results = scan_input(geom, \
[xmin],
[xmax],
npts, 'dft', task_optimize)
fp=open("sn1_ci.dat","w")
for i in range(0,len(results)):
    fp.write(f'{results[i][0][0]} {results[i][1]} \n')
fp.close()

end
task python
================================================================================


                                         
                                         


             Northwest Computational Chemistry Package (NWChem) 7.2.2
             --------------------------------------------------------


                    Environmental Molecular Sciences Laboratory
                       Pacific Northwest National Laboratory
                                Richland, WA 99352

                              Copyright (c) 1994-2022
                       Pacific Northwest National Laboratory
                            Battelle Memorial Institute

             NWChem is an open-source computational chemistry package
                        distributed under the terms of the
                      Educational Community License (ECL) 2.0
             A copy of the license is included with this distribution
                              in the LICENSE.TXT file

                                  ACKNOWLEDGMENT
                                  --------------

            This software and its documentation were developed at the
            EMSL at Pacific Northwest National Laboratory, a multiprogram
            national laboratory, operated for the U.S. Department of Energy
            by Battelle under Contract Number DE-AC05-76RL01830. Support
            for this work was provided by the Department of Energy Office
            of Biological and Environmental Research, Office of Basic
            Energy Sciences, and the Office of Advanced Scientific Computing.


           Job information
           ---------------

    hostname        = iiserb-lab4
    program         = nwchem
    date            = Tue Jul  9 10:08:34 2024

    compiled        = Fri_Jun_07_08:00:10_2024
    source          = /home/conda/feedstock_root/build_artifacts/nwchem_1717738152402/work
    nwchem branch   = 7.2.2
    nwchem revision = 64ba0f0
    ga revision     = 5.8.0
    use scalapack   = T
    input           = LIIC_SN1_CI.nw
    prefix          = molecule.
    data base       = ./molecule.db
    status          = startup
    nproc           =        4
    time left       =     -1s



           Memory information
           ------------------

    heap     =   26214400 doubles =    200.0 Mbytes
    stack    =   26214397 doubles =    200.0 Mbytes
    global   =   52428800 doubles =    400.0 Mbytes (distinct from heap & stack)
    total    =  104857597 doubles =    800.0 Mbytes
    verify   = yes
    hardfail = no 


           Directory information
           ---------------------

  0 permanent = .
  0 scratch   = .




                                NWChem Input Module
                                -------------------


                                       Title
                                       -----

 Scaling coordinates for geometry "geometry" by  1.889725989
 (inverse scale =  0.529177249)

 C3V symmetry detected

          ------
          auto-z
          ------
  autoz: The atoms group into disjoint clusters
 cluster   1:    1
 cluster   2:    2    3    4    5    6
 Connecting clusters   1   2 via atoms    1    4 r = 2.92
  autoz: regenerating connections with new bonds
  no constraints, skipping    0.0000000000000000     
  no constraints, skipping    0.0000000000000000     


                             Geometry "geometry" -> ""
                             -------------------------

 Output coordinates in angstroms (scale by  1.889725989 to convert to a.u.)

  No.       Tag          Charge          X              Y              Z
 ---- ---------------- ---------- -------------- -------------- --------------
    1 I                   53.0000    -0.00000000    -0.00000000     1.39084783
    2 Cl                  17.0000     0.00000000     0.00000000    -3.53292063
    3 C                    6.0000     0.00000000     0.00000000    -1.60915152
    4 H                    1.0000     0.74342354     0.74342354    -1.33345849
    5 H                    1.0000    -1.01553544     0.27211190    -1.33345849
    6 H                    1.0000     0.27211190    -1.01553544    -1.33345849

      Atomic Mass 
      ----------- 

      I                126.900400
      Cl                34.968850
      C                 12.000000
      H                  1.007825


 Effective nuclear repulsion energy (a.u.)     230.5037123431

            Nuclear Dipole moment (a.u.) 
            ----------------------------
        X                 Y               Z
 ---------------- ---------------- ----------------
     0.0000000000     0.0000000000    -0.0000000000

      Symmetry information
      --------------------

 Group name             C3v       
 Group number             17
 Group order               6
 No. of unique centers     4

      Symmetry unique atoms

     1    2    3    4



                                Z-matrix (autoz)
                                -------- 

 Units are Angstrom for bonds and degrees for angles

      Type          Name      I     J     K     L     M      Value
      ----------- --------  ----- ----- ----- ----- ----- ----------
    1 Stretch                  1     4                       2.92014
    2 Stretch                  2     3                       1.92377
    3 Stretch                  3     4                       1.08691
    4 Stretch                  3     5                       1.08691
    5 Stretch                  3     6                       1.08691
    6 Bend                     1     4     3                83.59106
    7 Bend                     2     3     4               104.69357
    8 Bend                     2     3     5               104.69357
    9 Bend                     2     3     6               104.69357
   10 Bend                     4     3     5               113.79672
   11 Bend                     4     3     6               113.79672
   12 Bend                     5     3     6               113.79672
   13 Torsion                  1     4     3     2         180.00000
   14 Torsion                  1     4     3     5          66.28249
   15 Torsion                  1     4     3     6         -66.28249


            XYZ format geometry
            -------------------
     6
 geometry
 I                    -0.00000000    -0.00000000     1.39084783
 Cl                    0.00000000     0.00000000    -3.53292063
 C                     0.00000000     0.00000000    -1.60915152
 H                     0.74342354     0.74342354    -1.33345849
 H                    -1.01553544     0.27211190    -1.33345849
 H                     0.27211190    -1.01553544    -1.33345849

 ==============================================================================
                                internuclear distances
 ------------------------------------------------------------------------------
       center one      |      center two      | atomic units |  angstroms
 ------------------------------------------------------------------------------
    3 C                |   2 Cl               |     3.63540  |     1.92377
    4 H                |   3 C                |     2.05395  |     1.08691
    5 H                |   3 C                |     2.05395  |     1.08691
    6 H                |   3 C                |     2.05395  |     1.08691
 ------------------------------------------------------------------------------
                         number of included internuclear distances:          4
 ==============================================================================



 ==============================================================================
                                 internuclear angles
 ------------------------------------------------------------------------------
        center 1       |       center 2       |       center 3       |  degrees
 ------------------------------------------------------------------------------
    2 Cl               |   3 C                |   4 H                |   104.69
    2 Cl               |   3 C                |   5 H                |   104.69
    2 Cl               |   3 C                |   6 H                |   104.69
    4 H                |   3 C                |   5 H                |   113.80
    4 H                |   3 C                |   6 H                |   113.80
    5 H                |   3 C                |   6 H                |   113.80
 ------------------------------------------------------------------------------
                            number of included internuclear angles:          6
 ==============================================================================



  library name resolved from: environment
  library file name is: </home/iiserb/anaconda3/envs/chemstarx/share/nwchem/libraries/>
  


 Summary of "ao basis" -> "" (cartesian)
 ------------------------------------------------------------------------------
       Tag                 Description            Shells   Functions and Types
 ---------------- ------------------------------  ------  ---------------------
 *                         def2-svpd                  on all atoms 


  library name resolved from: environment
  library file name is: </home/iiserb/anaconda3/envs/chemstarx/share/nwchem/libraries/>
  
                 ECP       "ecp basis" -> "" (cartesian)
                -----
  I (Iodine) Replaces    28 electrons
  -----------------------------------
             Channel    R-exponent     Exponent     Coefficients
         ------------ ---------------------------------------------------------
  1 U L       Both         2.00       19.458609     -21.842040
  1 U L       Both         2.00       19.349260     -28.468191
  1 U L       Both         2.00        4.823767      -0.243713
  1 U L       Both         2.00        4.884315      -0.320804

  2 U-s       Both         2.00       40.015835      49.994293
  2 U-s       Both         2.00       17.429747     281.025317
  2 U-s       Both         2.00        9.005484      61.573326
  2 U-s       Both         2.00       19.458609      21.842040
  2 U-s       Both         2.00       19.349260      28.468191
  2 U-s       Both         2.00        4.823767       0.243713
  2 U-s       Both         2.00        4.884315       0.320804

  3 U-p       Both         2.00       15.355466      67.442841
  3 U-p       Both         2.00       14.971833     134.881137
  3 U-p       Both         2.00        8.960164      14.675051
  3 U-p       Both         2.00        8.259096      29.375666
  3 U-p       Both         2.00       19.458609      21.842040
  3 U-p       Both         2.00       19.349260      28.468191
  3 U-p       Both         2.00        4.823767       0.243713
  3 U-p       Both         2.00        4.884315       0.320804

  4 U-d       Both         2.00       15.068908      35.439529
  4 U-d       Both         2.00       14.555322      53.176057
  4 U-d       Both         2.00        6.718647       9.067195
  4 U-d       Both         2.00        6.456393      13.206937
  4 U-d       Both         2.00        1.191779       0.089335
  4 U-d       Both         2.00        1.291157       0.052380
  4 U-d       Both         2.00       19.458609      21.842040
  4 U-d       Both         2.00       19.349260      28.468191
  4 U-d       Both         2.00        4.823767       0.243713
  4 U-d       Both         2.00        4.884315       0.320804


                               NWChem Python program
                               ---------------------

from nwgeom import *
geom = '''
    geometry noprint adjust
        zcoord
            bond  2 3   %f ccl  constant
        end
    end
'''
x0=3.000
y0=1.801
xmax=2.171
ymax=3.000
npts=20
xmin = x0 - (xmax-x0)/npts
results = scan_input(geom, \
[xmin],
[xmax],
npts, 'dft', task_optimize)
fp=open("sn1_ci.dat","w")
for i in range(0,len(results)):
    fp.write(f'{results[i][0][0]} {results[i][1]} \n')
fp.close()


 
 Scanning NWChem input 
 ---------------------
 

    geometry noprint adjust
        zcoord
            bond  2 3   %f ccl  constant
        end
    end

 
 Nstep  20
 Start  [3.04145]
 End    [2.171]
 
 
 Scanning NWChem input - step 1 of 20 
 

    geometry noprint adjust
        zcoord
            bond  2 3   3.000000 ccl  constant
        end
    end

 


                                NWChem Input Module
                                -------------------


 C3V symmetry detected


                           NWChem Geometry Optimization
                           ----------------------------




                                       Title


 maximum gradient threshold         (gmax) =   0.000450
 rms gradient threshold             (grms) =   0.000300
 maximum cartesian step threshold   (xmax) =   0.001800
 rms cartesian step threshold       (xrms) =   0.001200
 fixed trust radius                (trust) =   0.300000
 maximum step size to saddle      (sadstp) =   0.100000
 energy precision                  (eprec) =   5.0D-06
 maximum number of steps          (nptopt) =   99
 initial hessian option           (inhess) =    0
 line search option               (linopt) =    1
 hessian update option            (modupd) =    1
 saddle point option              (modsad) =    0
 initial eigen-mode to follow     (moddir) =    0
 initial variable to follow       (vardir) =    0
 follow first negative mode     (firstneg) =    T
 apply conjugacy                    (opcg) =    F
 source of zmatrix                         =   autoz   


          -------------------
          Energy Minimization
          -------------------


 Names of Z-matrix variables 
    1              2 ccl          3              4              5         
    6              7              8              9             10         
   11             12             13             14             15         

 Variables with the same non-blank name are constrained to be equal


 Number of frozen variables =    1
           Frozen variables =    2

 Using diagonal initial Hessian 
 Scaling for Hessian diagonals: bonds = 1.00  angles = 0.25  torsions = 0.10

          --------
          Step   0
          --------


                         Geometry "geometry" -> "geometry"
                         ---------------------------------

 Output coordinates in angstroms (scale by  1.889725989 to convert to a.u.)

  No.       Tag          Charge          X              Y              Z
 ---- ---------------- ---------- -------------- -------------- --------------
    1 I                   53.0000     0.00000000    -0.00000000     1.57021965
    2 Cl                  17.0000    -0.00000000     0.00000000    -4.42977970
    3 C                    6.0000    -0.00000000    -0.00000000    -1.42977970
    4 H                    1.0000     0.74342354     0.74342354    -1.15408667
    5 H                    1.0000    -1.01553544     0.27211190    -1.15408667
    6 H                    1.0000     0.27211190    -1.01553544    -1.15408667

      Atomic Mass 
      ----------- 

      I                126.900400
      Cl                34.968850
      C                 12.000000
      H                  1.007825


 Effective nuclear repulsion energy (a.u.)     199.8431490144

            Nuclear Dipole moment (a.u.) 
            ----------------------------
        X                 Y               Z
 ---------------- ---------------- ----------------
    -0.0000000000    -0.0000000000    -7.7961623498

      Symmetry information
      --------------------

 Group name             C3v       
 Group number             17
 Group order               6
 No. of unique centers     4

      Symmetry unique atoms

     1    2    3    4


                                 NWChem DFT Module
                                 -----------------


                                       Title


                      Basis "ao basis" -> "ao basis" (cartesian)
                      -----
  I (Iodine)
  ----------
            Exponent  Coefficients 
       -------------- ---------------------------------------------------------
  1 S  4.45904892E+02  0.002004
  1 S  2.33368424E+01 -0.149894
  1 S  1.95834461E+01  0.364365
  1 S  8.51120892E+00 -0.755381
  1 S  2.19961619E+00  0.828164
  1 S  1.06689705E+00  0.421610

  2 S  1.17205476E+01 -0.016160
  2 S  1.76259864E+00  0.352715

  3 S  2.86974763E-01  1.000000

  4 S  1.12276096E-01  1.000000

  5 S  4.51236355E-02  1.000000

  6 P  2.04990273E+01  0.077159
  6 P  1.05587546E+01 -0.383704
  6 P  1.50158955E+00  0.835542
  6 P  6.45971731E-01  0.167873

  7 P  3.02886568E+00  1.000000

  8 P  3.45065918E-01  1.000000

  9 P  1.11345138E-01  1.000000

 10 P  2.97955072E-02  1.000000

 11 D  5.12353549E+01  0.004035
 11 D  1.56162395E+01 -0.005077
 11 D  4.52660021E+00  0.291511
 11 D  2.05298088E+00  0.511458
 11 D  8.76402816E-01  0.312320

 12 D  3.09000000E-01  1.000000

 13 D  7.79872552E-02  1.000000

  Cl (Chlorine)
  -------------
            Exponent  Coefficients 
       -------------- ---------------------------------------------------------
  1 S  1.04498276E+04  0.001971
  1 S  1.57173652E+03  0.014755
  1 S  3.57120655E+02  0.066679
  1 S  1.00251859E+02  0.172289
  1 S  3.08127276E+01  0.158838

  2 S  5.19237894E+01 -0.100093
  2 S  5.70457610E+00  0.608418
  2 S  2.35083768E+00  0.543522

  3 S  4.46051247E-01  1.000000

  4 S  1.68488562E-01  1.000000

  5 S  5.53442294E-02  1.000000

  6 P  3.07667906E+02 -0.008780
  6 P  7.21020155E+01 -0.063563
  6 P  2.25326803E+01 -0.240164
  6 P  7.89917654E+00 -0.477989
  6 P  2.87672683E+00 -0.385159

  7 P  7.74593640E-01  1.000000

  8 P  2.10376997E-01  1.000000

  9 P  5.00462711E-02  1.000000

 10 D  6.50000000E-01  1.000000

 11 D  1.22848034E-01  1.000000

  C (Carbon)
  ----------
            Exponent  Coefficients 
       -------------- ---------------------------------------------------------
  1 S  1.23840169E+03  0.005457
  1 S  1.86290050E+02  0.040638
  1 S  4.22511763E+01  0.180256
  1 S  1.16765579E+01  0.463151
  1 S  3.59305065E+00  0.440872

  2 S  4.02451474E-01  1.000000

  3 S  1.30901827E-01  1.000000

  4 S  6.70535403E-02  1.000000

  5 P  9.46809706E+00  0.038388
  5 P  2.01035451E+00  0.211170
  5 P  5.47710047E-01  0.513282

  6 P  1.52686138E-01  1.000000

  7 D  8.00000000E-01  1.000000

  8 D  1.17131851E-01  1.000000

  H (Hydrogen)
  ------------
            Exponent  Coefficients 
       -------------- ---------------------------------------------------------
  1 S  1.30107010E+01  0.019682
  1 S  1.96225720E+00  0.137965
  1 S  4.44537960E-01  0.478319

  2 S  1.21949620E-01  1.000000

  3 P  8.00000000E-01  1.000000

  4 P  1.17040991E-01  1.000000



 Summary of "ao basis" -> "ao basis" (cartesian)
 ------------------------------------------------------------------------------
       Tag                 Description            Shells   Functions and Types
 ---------------- ------------------------------  ------  ---------------------
 I                         def2-svpd                13       38   5s5p3d
 Cl                        def2-svpd                11       29   5s4p2d
 C                         def2-svpd                 8       22   4s2p2d
 H                         def2-svpd                 4        8   2s2p




 Summary of "ao basis" -> "ao basis" (cartesian)
 ------------------------------------------------------------------------------
       Tag                 Description            Shells   Functions and Types
 ---------------- ------------------------------  ------  ---------------------
 I                         def2-svpd                13       38   5s5p3d
 Cl                        def2-svpd                11       29   5s4p2d
 C                         def2-svpd                 8       22   4s2p2d
 H                         def2-svpd                 4        8   2s2p


      Symmetry analysis of basis
      --------------------------

        a1         45
        a2          2
        e          66

  Caching 1-el integrals 
  Rotation of axis 

            General Information
            -------------------
          SCF calculation type: DFT
          Wavefunction type:  closed shell.
          No. of atoms     :     6
          No. of electrons :    52
           Alpha electrons :    26
            Beta electrons :    26
          Charge           :    -1
          Spin multiplicity:     1
          Use of symmetry is: on ; symmetry adaption is: on 
          Maximum number of iterations:  50
          AO basis - number of functions:   113
                     number of shells:    44
          Convergence on energy requested:  1.00D-06
          Convergence on density requested:  1.00D-05
          Convergence on gradient requested:  5.00D-04

              XC Information
              --------------
                         B3LYP Method XC Potential
                     Hartree-Fock (Exact) Exchange  0.200          
                        Slater Exchange Functional  0.800 local    
                    Becke 1988 Exchange Functional  0.720 non-local
              Lee-Yang-Parr Correlation Functional  0.810          
                  VWN I RPA Correlation Functional  0.190 local    

             Grid Information
             ----------------
          Grid used for XC integration:  medium    
          Radial quadrature: Mura-Knowles        
          Angular quadrature: Lebedev. 
          Tag              B.-S. Rad. Rad. Pts. Rad. Cut. Ang. Pts.
          ---              ---------- --------- --------- ---------
          I                   1.40      123          16.0       590
          Cl                  1.00       88          18.0       590
          C                   0.70       49          13.0       434
          H                   0.35       45          12.0       434
          Grid pruning is: on 
          Number of quadrature shells:   305
          Spatial weights used:  Erf1

          Convergence Information
          -----------------------
          Convergence aids based upon iterative change in 
          total energy or number of iterations. 
          Levelshifting, if invoked, occurs when the 
          HOMO/LUMO gap drops below (HL_TOL):  1.00D-02
          DIIS, if invoked, will attempt to extrapolate 
          using up to (NFOCK): 10 stored Fock matrices.

                    Damping( 0%)  Levelshifting(0.5)       DIIS
                  --------------- ------------------- ---------------
          dE  on:    start            ASAP                start   
          dE off:    2 iters         50 iters            50 iters 


      Screening Tolerance Information
      -------------------------------
          Density screening/tol_rho:  1.00D-10
          AO Gaussian exp screening on grid/accAOfunc:  14
          CD Gaussian exp screening on grid/accCDfunc:  20
          XC Gaussian exp screening on grid/accXCfunc:  20
          Schwarz screening/accCoul:  1.00D-08


      Superposition of Atomic Density Guess
      -------------------------------------

 Sum of atomic energies:        -845.57913955

 Renormalizing density from      51.00 to     52

      Non-variational initial energy
      ------------------------------

 Total energy =    -802.575243
 1-e energy   =   -1456.950182
 2-e energy   =     541.369314
 HOMO         =      -0.084690
 LUMO         =       0.092608


      Symmetry analysis of molecular orbitals - initial
      -------------------------------------------------

  Numbering of irreducible representations: 

     1 a1          2 a2          3 e       

  Orbital symmetries:

     1 a1          2 a1          3 a1          4 e           5 e       
     6 a1          7 a1          8 e           9 e          10 a1      
    11 e          12 e          13 a1         14 e          15 e       
    16 a1         17 a1         18 a1         19 e          20 e       
    21 a1         22 e          23 e          24 a1         25 e       
    26 e          27 a1         28 a1         29 a1         30 e       
    31 e          32 a1         33 a1         34 e          35 e       
    36 a1      

  WARNING: movecs_in_org=atomic not equal to movecs_in=./molecule.movecs
   Time after variat. SCF:      1.4
   Time prior to 1st pass:      1.4

 Grid_pts file          = ./molecule.gridpts.0
 Record size in doubles =  12289        No. of grid_pts per rec  =   3070
 Max. records in memory =     18        Max. recs in file   = 253312716


           Memory utilization after 1st SCF pass: 
           Heap Space remaining (MW):        0.00                1324
          Stack Space remaining (MW):       26.21            26213652

   convergence    iter        energy       DeltaE   RMS-Dens  Diis-err    time
 ---------------- ----- ----------------- --------- --------- ---------  ------
 d= 0,ls=0.0,diis     1   -797.6833777586 -9.11D+02  2.42D-02  1.03D+00     3.2
 d= 0,ls=0.0,diis     2   -797.0035381644  6.80D-01  1.85D-02  3.98D+00     4.8
 d= 0,ls=0.0,diis     3   -797.7441016013 -7.41D-01  5.93D-03  4.33D-01     6.0
 d= 0,ls=0.0,diis     4   -797.8170007419 -7.29D-02  9.48D-04  7.75D-03     6.9
 d= 0,ls=0.0,diis     5   -797.8178168891 -8.16D-04  2.61D-04  6.59D-04     7.8
  Resetting Diis
 d= 0,ls=0.0,diis     6   -797.8178462414 -2.94D-05  1.84D-04  2.76D-04     8.7
 d= 0,ls=0.0,diis     7   -797.8179108511 -6.46D-05  1.09D-04  1.60D-05     9.6
 d= 0,ls=0.0,diis     8   -797.8178927428  1.81D-05  7.63D-05  1.17D-04    10.5
 d= 0,ls=0.0,diis     9   -797.8179139048 -2.12D-05  5.51D-06  1.88D-07    11.3
 d= 0,ls=0.0,diis    10   -797.8179139209 -1.61D-08  3.33D-06  7.47D-08    12.2


         Total DFT energy =     -797.817913920853
      One electron energy =    -1440.556036694945
           Coulomb energy =      586.869364095146
    Exchange-Corr. energy =      -57.136867099217
 Nuclear repulsion energy =      113.005625778163

 Numeric. integr. density =       51.999992859313

     Total iterative time =     10.7s



                  Occupations of the irreducible representations
                  ----------------------------------------------

                     irrep           alpha         beta
                     --------     --------     --------
                     a1               12.0         12.0
                     a2                0.0          0.0
                     e                14.0         14.0


                       DFT Final Molecular Orbital Analysis
                       ------------------------------------

 Vector    1  Occ=2.000000D+00  E=-1.013189D+02  Symmetry=a1
              MO Center=  1.4D-21,  8.9D-22, -4.4D+00, r^2= 3.2D-03
   Bfn.  Coefficient  Atom+Function         Bfn.  Coefficient  Atom+Function  
  ----- ------------  ---------------      ----- ------------  ---------------
    39      0.993390  2 Cl s                 40      0.030454  2 Cl s          
    41     -0.025559  2 Cl s          

 Vector    2  Occ=2.000000D+00  E=-1.014804D+01  Symmetry=a1
              MO Center=  5.4D-17, -2.8D-17, -1.4D+00, r^2= 2.8D-02
   Bfn.  Coefficient  Atom+Function         Bfn.  Coefficient  Atom+Function  
  ----- ------------  ---------------      ----- ------------  ---------------
    68      0.987471  3 C  s                 71     -0.083342  3 C  s          
    69      0.063562  3 C  s                 89      0.028033  3 C  dzz        
    84      0.026662  3 C  dxx               87      0.026662  3 C  dyy        

 Vector    3  Occ=2.000000D+00  E=-9.248036D+00  Symmetry=a1
              MO Center= -3.1D-18, -2.8D-17, -4.4D+00, r^2= 6.6D-02
   Bfn.  Coefficient  Atom+Function         Bfn.  Coefficient  Atom+Function  
  ----- ------------  ---------------      ----- ------------  ---------------
    40      1.013699  2 Cl s                 39     -0.311094  2 Cl s          
    41      0.070790  2 Cl s          

 Vector    4  Occ=2.000000D+00  E=-7.014924D+00  Symmetry=a1
              MO Center=  5.0D-20,  5.8D-21, -4.4D+00, r^2= 5.8D-02
   Bfn.  Coefficient  Atom+Function         Bfn.  Coefficient  Atom+Function  
  ----- ------------  ---------------      ----- ------------  ---------------
    46      0.980796  2 Cl pz                49     -0.051890  2 Cl pz         

 Vector    5  Occ=2.000000D+00  E=-7.010359D+00  Symmetry=e
              MO Center=  8.3D-07,  1.5D-07, -4.4D+00, r^2= 5.8D-02
   Bfn.  Coefficient  Atom+Function         Bfn.  Coefficient  Atom+Function  
  ----- ------------  ---------------      ----- ------------  ---------------
    44      0.868049  2 Cl px                45     -0.457333  2 Cl py         
    47     -0.044490  2 Cl px         

 Vector    6  Occ=2.000000D+00  E=-7.010359D+00  Symmetry=e
              MO Center= -8.3D-07, -1.5D-07, -4.4D+00, r^2= 5.8D-02
   Bfn.  Coefficient  Atom+Function         Bfn.  Coefficient  Atom+Function  
  ----- ------------  ---------------      ----- ------------  ---------------
    45      0.868049  2 Cl py                44      0.457333  2 Cl px         
    48     -0.044490  2 Cl py         

 Vector    7  Occ=2.000000D+00  E=-6.671679D+00  Symmetry=a1
              MO Center= -1.2D-22, -1.5D-22,  1.6D+00, r^2= 1.8D-01
   Bfn.  Coefficient  Atom+Function         Bfn.  Coefficient  Atom+Function  
  ----- ------------  ---------------      ----- ------------  ---------------
     1      0.934731  1 I  s                  2      0.082885  1 I  s          
     3      0.034002  1 I  s          

 Vector    8  Occ=2.000000D+00  E=-4.693408D+00  Symmetry=a1
              MO Center= -2.7D-22, -6.7D-24,  1.6D+00, r^2= 2.0D-01
   Bfn.  Coefficient  Atom+Function         Bfn.  Coefficient  Atom+Function  
  ----- ------------  ---------------      ----- ------------  ---------------
     8      0.566576  1 I  pz                11      0.536956  1 I  pz         

 Vector    9  Occ=2.000000D+00  E=-4.686256D+00  Symmetry=e
              MO Center= -2.8D-07, -1.9D-07,  1.6D+00, r^2= 2.0D-01
   Bfn.  Coefficient  Atom+Function         Bfn.  Coefficient  Atom+Function  
  ----- ------------  ---------------      ----- ------------  ---------------
     6      0.435911  1 I  px                 9      0.413353  1 I  px         
     7     -0.361939  1 I  py                10     -0.343208  1 I  py         

 Vector   10  Occ=2.000000D+00  E=-4.686256D+00  Symmetry=e
              MO Center=  2.8D-07,  1.9D-07,  1.6D+00, r^2= 2.0D-01
   Bfn.  Coefficient  Atom+Function         Bfn.  Coefficient  Atom+Function  
  ----- ------------  ---------------      ----- ------------  ---------------
     7      0.435911  1 I  py                10      0.413353  1 I  py         
     6      0.361939  1 I  px                 9      0.343208  1 I  px         

 Vector   11  Occ=2.000000D+00  E=-1.741444D+00  Symmetry=a1
              MO Center=  4.0D-18, -2.4D-18,  1.6D+00, r^2= 2.8D-01
   Bfn.  Coefficient  Atom+Function         Bfn.  Coefficient  Atom+Function  
  ----- ------------  ---------------      ----- ------------  ---------------
    26      0.980236  1 I  dzz               21     -0.489669  1 I  dxx        
    24     -0.489669  1 I  dyy               32      0.052330  1 I  dzz        
    27     -0.028939  1 I  dxx               30     -0.028939  1 I  dyy        

 Vector   12  Occ=2.000000D+00  E=-1.739457D+00  Symmetry=e
              MO Center=  1.1D-06, -7.7D-07,  1.6D+00, r^2= 2.8D-01
   Bfn.  Coefficient  Atom+Function         Bfn.  Coefficient  Atom+Function  
  ----- ------------  ---------------      ----- ------------  ---------------
    23      1.690219  1 I  dxz               25     -0.160374  1 I  dyz        
    29      0.091338  1 I  dxz        

 Vector   13  Occ=2.000000D+00  E=-1.739457D+00  Symmetry=e
              MO Center= -1.1D-06,  7.7D-07,  1.6D+00, r^2= 2.8D-01
   Bfn.  Coefficient  Atom+Function         Bfn.  Coefficient  Atom+Function  
  ----- ------------  ---------------      ----- ------------  ---------------
    25      1.690219  1 I  dyz               23      0.160374  1 I  dxz        
    31      0.091338  1 I  dyz        

 Vector   14  Occ=2.000000D+00  E=-1.733478D+00  Symmetry=e
              MO Center= -9.9D-07, -2.0D-06,  1.6D+00, r^2= 2.8D-01
   Bfn.  Coefficient  Atom+Function         Bfn.  Coefficient  Atom+Function  
  ----- ------------  ---------------      ----- ------------  ---------------
    21      0.837435  1 I  dxx               24     -0.837435  1 I  dyy        
    22      0.280405  1 I  dxy               27      0.044628  1 I  dxx        
    30     -0.044628  1 I  dyy        

 Vector   15  Occ=2.000000D+00  E=-1.733478D+00  Symmetry=e
              MO Center=  9.9D-07,  2.0D-06,  1.6D+00, r^2= 2.8D-01
   Bfn.  Coefficient  Atom+Function         Bfn.  Coefficient  Atom+Function  
  ----- ------------  ---------------      ----- ------------  ---------------
    22      1.674871  1 I  dxy               21     -0.140202  1 I  dxx        
    24      0.140202  1 I  dyy               28      0.089257  1 I  dxy        

 Vector   16  Occ=2.000000D+00  E=-5.847923D-01  Symmetry=a1
              MO Center=  5.2D-16,  1.8D-15, -1.6D+00, r^2= 2.4D+00
   Bfn.  Coefficient  Atom+Function         Bfn.  Coefficient  Atom+Function  
  ----- ------------  ---------------      ----- ------------  ---------------
    70      0.654875  3 C  s                 69      0.473748  3 C  s          
    71     -0.272543  3 C  s                 41      0.270524  2 Cl s          
    68     -0.224502  3 C  s                 40     -0.197221  2 Cl s          
    90      0.182484  4 H  s                 98      0.182484  5 H  s          
   106      0.182484  6 H  s                 91     -0.171138  4 H  s          

 Vector   17  Occ=2.000000D+00  E=-5.686056D-01  Symmetry=a1
              MO Center= -5.6D-17,  2.4D-16, -4.0D+00, r^2= 2.3D+00
   Bfn.  Coefficient  Atom+Function         Bfn.  Coefficient  Atom+Function  
  ----- ------------  ---------------      ----- ------------  ---------------
    41      0.698940  2 Cl s                 40     -0.507100  2 Cl s          
    42      0.344719  2 Cl s                 70     -0.329485  3 C  s          
    69     -0.187977  3 C  s                 71      0.146111  3 C  s          
    91      0.091106  4 H  s                 99      0.091106  5 H  s          
   107      0.091106  6 H  s                 68      0.087933  3 C  s          

 Vector   18  Occ=2.000000D+00  E=-5.095751D-01  Symmetry=a1
              MO Center=  4.4D-18,  1.6D-18,  1.4D+00, r^2= 1.8D+00
   Bfn.  Coefficient  Atom+Function         Bfn.  Coefficient  Atom+Function  
  ----- ------------  ---------------      ----- ------------  ---------------
     3      0.850663  1 I  s                  1     -0.425287  1 I  s          
     4      0.384081  1 I  s                  2     -0.366055  1 I  s          
    69     -0.141146  3 C  s                 70     -0.139506  3 C  s          
    71      0.072820  3 C  s                 68      0.064123  3 C  s          
    90     -0.049939  4 H  s                 98     -0.049939  5 H  s          

 Vector   19  Occ=2.000000D+00  E=-3.183000D-01  Symmetry=e
              MO Center= -2.4D-01, -3.9D-02, -1.3D+00, r^2= 1.2D+00
   Bfn.  Coefficient  Atom+Function         Bfn.  Coefficient  Atom+Function  
  ----- ------------  ---------------      ----- ------------  ---------------
    72      0.418954  3 C  px                98     -0.369563  5 H  s          
   106      0.253940  6 H  s                 99     -0.224182  5 H  s          
    73     -0.215251  3 C  py               107      0.154043  6 H  s          
    90      0.115624  4 H  s                 75      0.088739  3 C  px         
    91      0.070139  4 H  s                 76     -0.045592  3 C  py         

 Vector   20  Occ=2.000000D+00  E=-3.183000D-01  Symmetry=e
              MO Center=  2.4D-01,  3.9D-02, -1.3D+00, r^2= 1.2D+00
   Bfn.  Coefficient  Atom+Function         Bfn.  Coefficient  Atom+Function  
  ----- ------------  ---------------      ----- ------------  ---------------
    73      0.418954  3 C  py                90      0.359979  4 H  s          
   106     -0.280123  6 H  s                 91      0.218369  4 H  s          
    72      0.215251  3 C  px               107     -0.169926  6 H  s          
    76      0.088739  3 C  py                85     -0.082997  3 C  dxy        
    98     -0.079857  5 H  s                 99     -0.048442  5 H  s          

 Vector   21  Occ=2.000000D+00  E=-1.531117D-01  Symmetry=a1
              MO Center= -7.9D-17, -9.1D-17, -1.3D+00, r^2= 7.3D+00
   Bfn.  Coefficient  Atom+Function         Bfn.  Coefficient  Atom+Function  
  ----- ------------  ---------------      ----- ------------  ---------------
    14      0.346094  1 I  pz                52      0.307209  2 Cl pz         
    74     -0.304902  3 C  pz                17      0.273930  1 I  pz         
    77     -0.243947  3 C  pz                49      0.236752  2 Cl pz         
    70     -0.170852  3 C  s                 11     -0.142052  1 I  pz         
    46      0.138726  2 Cl pz                 8     -0.115484  1 I  pz         

 Vector   22  Occ=2.000000D+00  E=-1.127356D-01  Symmetry=e
              MO Center= -5.0D-04, -8.1D-04, -5.4D-01, r^2= 1.0D+01
   Bfn.  Coefficient  Atom+Function         Bfn.  Coefficient  Atom+Function  
  ----- ------------  ---------------      ----- ------------  ---------------
    13      0.371251  1 I  py                16      0.331255  1 I  py         
    12     -0.294136  1 I  px                51     -0.273060  2 Cl py         
    15     -0.262448  1 I  px                48     -0.216746  2 Cl py         
    50      0.216341  2 Cl px                47      0.171724  2 Cl px         
    10     -0.151976  1 I  py                45     -0.124950  2 Cl py         

 Vector   23  Occ=2.000000D+00  E=-1.127356D-01  Symmetry=e
              MO Center=  5.0D-04,  8.1D-04, -5.4D-01, r^2= 1.0D+01
   Bfn.  Coefficient  Atom+Function         Bfn.  Coefficient  Atom+Function  
  ----- ------------  ---------------      ----- ------------  ---------------
    12      0.371251  1 I  px                15      0.331255  1 I  px         
    13      0.294136  1 I  py                50     -0.273060  2 Cl px         
    16      0.262448  1 I  py                47     -0.216746  2 Cl px         
    51     -0.216341  2 Cl py                48     -0.171724  2 Cl py         
     9     -0.151976  1 I  px                44     -0.124950  2 Cl px         

 Vector   24  Occ=2.000000D+00  E=-1.113218D-01  Symmetry=e
              MO Center=  3.3D-04,  1.0D-05, -2.3D+00, r^2= 9.8D+00
   Bfn.  Coefficient  Atom+Function         Bfn.  Coefficient  Atom+Function  
  ----- ------------  ---------------      ----- ------------  ---------------
    50      0.438446  2 Cl px                47      0.347006  2 Cl px         
    12      0.319163  1 I  px                15      0.286511  1 I  px         
    44      0.200086  2 Cl px                51     -0.189465  2 Cl py         
    48     -0.149951  2 Cl py                13     -0.137920  1 I  py         
     9     -0.130705  1 I  px                16     -0.123810  1 I  py         

 Vector   25  Occ=2.000000D+00  E=-1.113218D-01  Symmetry=e
              MO Center= -3.3D-04, -1.0D-05, -2.3D+00, r^2= 9.8D+00
   Bfn.  Coefficient  Atom+Function         Bfn.  Coefficient  Atom+Function  
  ----- ------------  ---------------      ----- ------------  ---------------
    51      0.438446  2 Cl py                48      0.347006  2 Cl py         
    13      0.319163  1 I  py                16      0.286511  1 I  py         
    45      0.200086  2 Cl py                50      0.189465  2 Cl px         
    47      0.149951  2 Cl px                12      0.137920  1 I  px         
    10     -0.130705  1 I  py                15      0.123810  1 I  px         

 Vector   26  Occ=2.000000D+00  E=-1.092400D-01  Symmetry=a1
              MO Center= -3.9D-16,  4.9D-16, -1.8D+00, r^2= 1.1D+01
   Bfn.  Coefficient  Atom+Function         Bfn.  Coefficient  Atom+Function  
  ----- ------------  ---------------      ----- ------------  ---------------
    52      0.444319  2 Cl pz                14     -0.396508  1 I  pz         
    49      0.352254  2 Cl pz                17     -0.345452  1 I  pz         
    46      0.203409  2 Cl pz                11      0.161955  1 I  pz         
     8      0.131293  1 I  pz                55      0.099745  2 Cl pz         
    69     -0.097051  3 C  s                 70     -0.075243  3 C  s          

 Vector   27  Occ=0.000000D+00  E=-6.138058D-04  Symmetry=a1
              MO Center= -7.4D-16,  1.9D-16, -1.3D+00, r^2= 5.8D+00
   Bfn.  Coefficient  Atom+Function         Bfn.  Coefficient  Atom+Function  
  ----- ------------  ---------------      ----- ------------  ---------------
    74      0.515002  3 C  pz                77      0.370190  3 C  pz         
    14      0.297683  1 I  pz                17      0.295378  1 I  pz         
    52      0.268819  2 Cl pz                 5      0.236064  1 I  s          
    49      0.210071  2 Cl pz                 4     -0.177502  1 I  s          
    43     -0.142315  2 Cl s                 70      0.139912  3 C  s          

 Vector   28  Occ=0.000000D+00  E= 1.092710D-01  Symmetry=a1
              MO Center= -2.7D-14,  2.4D-14,  1.5D+00, r^2= 1.3D+01
   Bfn.  Coefficient  Atom+Function         Bfn.  Coefficient  Atom+Function  
  ----- ------------  ---------------      ----- ------------  ---------------
     5      7.106062  1 I  s                  4     -3.246173  1 I  s          
    38     -1.752817  1 I  dzz               70     -1.723082  3 C  s          
    33     -1.652856  1 I  dxx               36     -1.652856  1 I  dyy        
    71      0.658225  3 C  s                 91      0.553065  4 H  s          
    99      0.553065  5 H  s                107      0.553065  6 H  s          

 Vector   29  Occ=0.000000D+00  E= 1.329340D-01  Symmetry=a1
              MO Center= -2.5D-16, -8.7D-17,  1.6D+00, r^2= 1.8D+01
   Bfn.  Coefficient  Atom+Function         Bfn.  Coefficient  Atom+Function  
  ----- ------------  ---------------      ----- ------------  ---------------
    71      2.602010  3 C  s                 20      1.595598  1 I  pz         
    43     -1.268977  2 Cl s                  5     -0.830446  1 I  s          
    70     -0.656459  3 C  s                 42      0.372324  2 Cl s          
     4      0.330772  1 I  s                 38     -0.266776  1 I  dzz        
    55     -0.263483  2 Cl pz                62      0.258695  2 Cl dxx        

 Vector   30  Occ=0.000000D+00  E= 1.459560D-01  Symmetry=e
              MO Center= -8.8D-03, -4.1D-02,  1.6D+00, r^2= 1.4D+01
   Bfn.  Coefficient  Atom+Function         Bfn.  Coefficient  Atom+Function  
  ----- ------------  ---------------      ----- ------------  ---------------
    19      1.077293  1 I  py                18     -0.585314  1 I  px         
    16     -0.445118  1 I  py                15      0.241841  1 I  px         
   107     -0.172534  6 H  s                113      0.167290  6 H  pz         
    13     -0.146632  1 I  py                88      0.144111  3 C  dyz        
    84     -0.124223  3 C  dxx               87      0.124223  3 C  dyy        

 Vector   31  Occ=0.000000D+00  E= 1.459560D-01  Symmetry=e
              MO Center=  8.8D-03,  4.1D-02,  1.6D+00, r^2= 1.4D+01
   Bfn.  Coefficient  Atom+Function         Bfn.  Coefficient  Atom+Function  
  ----- ------------  ---------------      ----- ------------  ---------------
    18      1.077293  1 I  px                19      0.585314  1 I  py         
    15     -0.445118  1 I  px                85     -0.248446  3 C  dxy        
    16     -0.241841  1 I  py                91      0.170155  4 H  s          
    97     -0.164983  4 H  pz                12     -0.146632  1 I  px         
    86      0.144111  3 C  dxz              111     -0.142977  6 H  px         

 Vector   32  Occ=0.000000D+00  E= 1.658156D-01  Symmetry=a1
              MO Center= -7.4D-15, -7.4D-15, -4.2D+00, r^2= 1.6D+01
   Bfn.  Coefficient  Atom+Function         Bfn.  Coefficient  Atom+Function  
  ----- ------------  ---------------      ----- ------------  ---------------
    43      2.911394  2 Cl s                 71      2.882207  3 C  s          
     5     -2.594802  1 I  s                 70     -1.132852  3 C  s          
    42     -1.079621  2 Cl s                  4      1.072121  1 I  s          
    67     -0.827669  2 Cl dzz               20      0.790773  1 I  pz         
    62     -0.680056  2 Cl dxx               65     -0.680056  2 Cl dyy        

 Vector   33  Occ=0.000000D+00  E= 2.103623D-01  Symmetry=e
              MO Center= -1.8D-02, -3.9D-01, -4.2D-01, r^2= 1.1D+01
   Bfn.  Coefficient  Atom+Function         Bfn.  Coefficient  Atom+Function  
  ----- ------------  ---------------      ----- ------------  ---------------
   107      1.068891  6 H  s                112      0.936298  6 H  py         
    37     -0.683045  1 I  dyz               99     -0.678415  5 H  s          
   103     -0.600504  5 H  px                54      0.427094  2 Cl py         
    91     -0.390476  4 H  s                 76      0.338142  3 C  py         
    35      0.301832  1 I  dxz               88      0.297273  3 C  dyz        

 Vector   34  Occ=0.000000D+00  E= 2.103623D-01  Symmetry=e
              MO Center=  1.8D-02,  3.9D-01, -4.2D-01, r^2= 1.1D+01
   Bfn.  Coefficient  Atom+Function         Bfn.  Coefficient  Atom+Function  
  ----- ------------  ---------------      ----- ------------  ---------------
    91      1.008808  4 H  s                 99     -0.842566  5 H  s          
   103     -0.731190  5 H  px                35      0.683045  1 I  dxz        
    96     -0.654954  4 H  py                95     -0.636879  4 H  px         
    34     -0.531155  1 I  dxy               53     -0.427094  2 Cl px         
    75     -0.338142  3 C  px                37      0.301832  1 I  dyz        

 Vector   35  Occ=0.000000D+00  E= 2.111075D-01  Symmetry=a1
              MO Center=  1.2D-13, -2.0D-13, -1.2D+00, r^2= 1.7D+01
   Bfn.  Coefficient  Atom+Function         Bfn.  Coefficient  Atom+Function  
  ----- ------------  ---------------      ----- ------------  ---------------
    71      6.715306  3 C  s                  5     -4.480082  1 I  s          
    70     -3.976907  3 C  s                  4      2.257734  1 I  s          
    89     -1.509623  3 C  dzz               84     -1.123516  3 C  dxx        
    87     -1.123516  3 C  dyy               20      1.063728  1 I  pz         
    38      1.063619  1 I  dzz               43     -1.027460  2 Cl s          

 Vector   36  Occ=0.000000D+00  E= 2.247262D-01  Symmetry=e
              MO Center= -1.1D-01,  3.6D-02, -1.4D+00, r^2= 1.3D+01
   Bfn.  Coefficient  Atom+Function         Bfn.  Coefficient  Atom+Function  
  ----- ------------  ---------------      ----- ------------  ---------------
    34      0.771290  1 I  dxy               54     -0.695859  2 Cl py         
   107     -0.495846  6 H  s                 91      0.482563  4 H  s          
   104     -0.402542  5 H  py                51      0.324274  2 Cl py         
    33      0.234910  1 I  dxx               36     -0.234910  1 I  dyy        
    37      0.222757  1 I  dyz               85     -0.221710  3 C  dxy        

 Vector   37  Occ=0.000000D+00  E= 2.247262D-01  Symmetry=e
              MO Center=  1.1D-01, -3.6D-02, -1.4D+00, r^2= 1.3D+01
   Bfn.  Coefficient  Atom+Function         Bfn.  Coefficient  Atom+Function  
  ----- ------------  ---------------      ----- ------------  ---------------
    53      0.695859  2 Cl px                99      0.564884  5 H  s          
    34     -0.469819  1 I  dxy               33      0.385645  1 I  dxx        
    36     -0.385645  1 I  dyy              111      0.365055  6 H  px         
    50     -0.324274  2 Cl px                91     -0.293946  4 H  s          
    95      0.287634  4 H  px               107     -0.270939  6 H  s          

 Vector   38  Occ=0.000000D+00  E= 2.370173D-01  Symmetry=e
              MO Center=  6.2D-02,  3.0D-03, -9.2D-01, r^2= 1.5D+01
   Bfn.  Coefficient  Atom+Function         Bfn.  Coefficient  Atom+Function  
  ----- ------------  ---------------      ----- ------------  ---------------
    35      0.941610  1 I  dxz               53      0.670647  2 Cl px         
    37     -0.416882  1 I  dyz               54     -0.296918  2 Cl py         
    50     -0.293379  2 Cl px                33     -0.260562  1 I  dxx        
    36      0.260562  1 I  dyy              111     -0.238802  6 H  px         
    99     -0.223897  5 H  s                 95     -0.221983  4 H  px         

 Vector   39  Occ=0.000000D+00  E= 2.370173D-01  Symmetry=e
              MO Center= -6.2D-02, -3.0D-03, -9.2D-01, r^2= 1.5D+01
   Bfn.  Coefficient  Atom+Function         Bfn.  Coefficient  Atom+Function  
  ----- ------------  ---------------      ----- ------------  ---------------
    37      0.941610  1 I  dyz               54      0.670647  2 Cl py         
    34      0.521124  1 I  dxy               35      0.416882  1 I  dxz        
    53      0.296918  2 Cl px                51     -0.293379  2 Cl py         
   104     -0.275681  5 H  py                85     -0.263012  3 C  dxy        
    88      0.214616  3 C  dyz               91      0.211393  4 H  s          

 Vector   40  Occ=0.000000D+00  E= 2.576550D-01  Symmetry=a1
              MO Center=  1.3D-14, -7.0D-15, -3.5D+00, r^2= 1.3D+01
   Bfn.  Coefficient  Atom+Function         Bfn.  Coefficient  Atom+Function  
  ----- ------------  ---------------      ----- ------------  ---------------
    71      7.529890  3 C  s                  5     -5.741478  1 I  s          
    43     -3.362928  2 Cl s                 70     -2.126126  3 C  s          
    55     -2.057792  2 Cl pz                 4      1.918182  1 I  s          
    33      1.469212  1 I  dxx               36      1.469212  1 I  dyy        
    38      1.192589  1 I  dzz               42      1.057425  2 Cl s          

 Vector   41  Occ=0.000000D+00  E= 2.842215D-01  Symmetry=e
              MO Center= -1.0D-02, -1.6D-02, -2.7D-02, r^2= 7.9D+00
   Bfn.  Coefficient  Atom+Function         Bfn.  Coefficient  Atom+Function  
  ----- ------------  ---------------      ----- ------------  ---------------
    33      0.575355  1 I  dxx               36     -0.575355  1 I  dyy        
   112     -0.528779  6 H  py               103      0.496072  5 H  px         
    95     -0.411293  4 H  px                37     -0.370721  1 I  dyz        
    96      0.323708  4 H  py                35      0.293430  1 I  dxz        
    88     -0.224861  3 C  dyz              104      0.190335  5 H  py         

 Vector   42  Occ=0.000000D+00  E= 2.842215D-01  Symmetry=e
              MO Center=  1.0D-02,  1.6D-02, -2.7D-02, r^2= 7.9D+00
   Bfn.  Coefficient  Atom+Function         Bfn.  Coefficient  Atom+Function  
  ----- ------------  ---------------      ----- ------------  ---------------
    34      1.150711  1 I  dxy              111      0.518955  6 H  px         
   104      0.488296  5 H  py                96     -0.419069  4 H  py         
    35     -0.370721  1 I  dxz               95     -0.333532  4 H  px         
    37     -0.293430  1 I  dyz               86     -0.224861  3 C  dxz        
    63     -0.209132  2 Cl dxy              103     -0.200159  5 H  px         

 Vector   43  Occ=0.000000D+00  E= 3.009027D-01  Symmetry=a1
              MO Center= -9.3D-16,  5.1D-15,  1.4D+00, r^2= 1.4D+01
   Bfn.  Coefficient  Atom+Function         Bfn.  Coefficient  Atom+Function  
  ----- ------------  ---------------      ----- ------------  ---------------
     5     11.601628  1 I  s                 70     -6.517738  3 C  s          
     4     -4.741079  1 I  s                 71      4.151748  3 C  s          
    38     -4.036817  1 I  dzz               33     -3.723110  1 I  dxx        
    36     -3.723110  1 I  dyy               91      1.736902  4 H  s          
    99      1.736902  5 H  s                107      1.736902  6 H  s          

 Vector   44  Occ=0.000000D+00  E= 3.085001D-01  Symmetry=a1
              MO Center=  3.2D-15,  1.4D-15,  2.1D+00, r^2= 9.1D+00
   Bfn.  Coefficient  Atom+Function         Bfn.  Coefficient  Atom+Function  
  ----- ------------  ---------------      ----- ------------  ---------------
    71      5.242389  3 C  s                  5     -4.544986  1 I  s          
    70     -4.208475  3 C  s                  4      1.958909  1 I  s          
    20      1.608697  1 I  pz                33      1.378037  1 I  dxx        
    36      1.378037  1 I  dyy               91      1.109272  4 H  s          
    99      1.109272  5 H  s                107      1.109272  6 H  s          

 Vector   45  Occ=0.000000D+00  E= 3.153119D-01  Symmetry=e
              MO Center= -1.9D-04,  2.3D-03, -2.6D+00, r^2= 9.0D+00
   Bfn.  Coefficient  Atom+Function         Bfn.  Coefficient  Atom+Function  
  ----- ------------  ---------------      ----- ------------  ---------------
    64      0.633231  2 Cl dxz              103      0.525294  5 H  px         
    95      0.498460  4 H  px                35      0.432478  1 I  dxz        
    53     -0.417534  2 Cl px                75     -0.386471  3 C  px         
   111      0.377511  6 H  px                97     -0.324303  4 H  pz         
    86     -0.315565  3 C  dxz               85     -0.294810  3 C  dxy        

 Vector   46  Occ=0.000000D+00  E= 3.153119D-01  Symmetry=e
              MO Center=  1.9D-04, -2.3D-03, -2.6D+00, r^2= 9.0D+00
   Bfn.  Coefficient  Atom+Function         Bfn.  Coefficient  Atom+Function  
  ----- ------------  ---------------      ----- ------------  ---------------
    66      0.633231  2 Cl dyz              112      0.556666  6 H  py         
    96      0.435717  4 H  py                37      0.432478  1 I  dyz        
    54     -0.417534  2 Cl py               104      0.408883  5 H  py         
    76     -0.386471  3 C  py               113      0.355821  6 H  pz         
    88     -0.315565  3 C  dyz               19     -0.260128  1 I  py         

 Vector   47  Occ=0.000000D+00  E= 3.752211D-01  Symmetry=e
              MO Center= -2.1D-02, -4.7D-02, -1.6D+00, r^2= 1.2D+01
   Bfn.  Coefficient  Atom+Function         Bfn.  Coefficient  Atom+Function  
  ----- ------------  ---------------      ----- ------------  ---------------
    37      1.213910  1 I  dyz              113     -1.062534  6 H  pz         
   105      0.860780  5 H  pz                35     -0.840621  1 I  dxz        
    96      0.754577  4 H  py               104      0.704185  5 H  py         
    95     -0.674392  4 H  px                88     -0.614814  3 C  dyz        
    84      0.542529  3 C  dxx               87     -0.542529  3 C  dyy        

 Vector   48  Occ=0.000000D+00  E= 3.752211D-01  Symmetry=e
              MO Center=  2.1D-02,  4.7D-02, -1.6D+00, r^2= 1.2D+01
   Bfn.  Coefficient  Atom+Function         Bfn.  Coefficient  Atom+Function  
  ----- ------------  ---------------      ----- ------------  ---------------
    35      1.213910  1 I  dxz               97      1.110426  4 H  pz         
    85      1.085059  3 C  dxy              111      0.906234  6 H  px         
    63     -0.863705  2 Cl dxy               37      0.840621  1 I  dyz        
   105     -0.729937  5 H  pz               104      0.703486  5 H  py         
    86     -0.614814  3 C  dxz               88     -0.425752  3 C  dyz        

 Vector   49  Occ=0.000000D+00  E= 3.857749D-01  Symmetry=a1
              MO Center=  2.3D-13,  1.6D-13, -1.8D+00, r^2= 9.6D+00
   Bfn.  Coefficient  Atom+Function         Bfn.  Coefficient  Atom+Function  
  ----- ------------  ---------------      ----- ------------  ---------------
    70     26.686891  3 C  s                 71    -17.986577  3 C  s          
    91     -5.972507  4 H  s                 99     -5.972507  5 H  s          
   107     -5.972507  6 H  s                 84      4.494524  3 C  dxx        
    87      4.494524  3 C  dyy                5      4.244834  1 I  s          
    43      3.224822  2 Cl s                 89      2.852930  3 C  dzz        

 Vector   50  Occ=0.000000D+00  E= 3.983902D-01  Symmetry=e
              MO Center=  2.0D-01,  8.9D-02, -3.1D+00, r^2= 9.1D+00
   Bfn.  Coefficient  Atom+Function         Bfn.  Coefficient  Atom+Function  
  ----- ------------  ---------------      ----- ------------  ---------------
    99      1.174396  5 H  s                107     -0.948722  6 H  s          
    95      0.830315  4 H  px               111      0.779111  6 H  px         
    96     -0.732648  4 H  py                35      0.690303  1 I  dxz        
    84     -0.652430  3 C  dxx               87      0.652430  3 C  dyy        
    62     -0.621326  2 Cl dxx               65      0.621326  2 Cl dyy        

 Vector   51  Occ=0.000000D+00  E= 3.983902D-01  Symmetry=e
              MO Center= -2.0D-01, -8.9D-02, -3.1D+00, r^2= 9.1D+00
   Bfn.  Coefficient  Atom+Function         Bfn.  Coefficient  Atom+Function  
  ----- ------------  ---------------      ----- ------------  ---------------
    85      1.304860  3 C  dxy               63      1.242651  2 Cl dxy        
    91     -1.225783  4 H  s                104      0.989707  5 H  py         
   107      0.808331  6 H  s                111      0.762210  6 H  px         
    37      0.690303  1 I  dyz               35      0.475644  1 I  dxz        
   112      0.460325  6 H  py                99      0.417451  5 H  s          

 Vector   52  Occ=0.000000D+00  E= 4.462724D-01  Symmetry=a1
              MO Center=  2.7D-16,  3.8D-15, -3.1D+00, r^2= 1.0D+01
   Bfn.  Coefficient  Atom+Function         Bfn.  Coefficient  Atom+Function  
  ----- ------------  ---------------      ----- ------------  ---------------
    71      9.913679  3 C  s                 70     -6.826246  3 C  s          
     5     -2.871764  1 I  s                 43      2.186768  2 Cl s          
    89     -1.807711  3 C  dzz               67     -1.597462  2 Cl dzz        
    84     -1.564212  3 C  dxx               87     -1.564212  3 C  dyy        
    77     -1.230851  3 C  pz                62     -0.996145  2 Cl dxx        

 Vector   53  Occ=0.000000D+00  E= 4.543606D-01  Symmetry=a1
              MO Center=  4.0D-13,  3.5D-13, -2.0D+00, r^2= 1.1D+01
   Bfn.  Coefficient  Atom+Function         Bfn.  Coefficient  Atom+Function  
  ----- ------------  ---------------      ----- ------------  ---------------
    70      3.195032  3 C  s                 43      2.902348  2 Cl s          
     5     -2.143337  1 I  s                 71     -1.911506  3 C  s          
    38      1.326720  1 I  dzz               62     -1.292308  2 Cl dxx        
    65     -1.292308  2 Cl dyy               77      1.199730  3 C  pz         
     4      1.153630  1 I  s                 67     -0.826502  2 Cl dzz        

 Vector   54  Occ=0.000000D+00  E= 4.612097D-01  Symmetry=a2
              MO Center=  7.7D-14,  1.5D-13, -1.2D+00, r^2= 6.0D+00
   Bfn.  Coefficient  Atom+Function         Bfn.  Coefficient  Atom+Function  
  ----- ------------  ---------------      ----- ------------  ---------------
   104      1.421585  5 H  py               111     -1.421585  6 H  px         
    95      1.040672  4 H  px                96     -1.040672  4 H  py         
   103      0.380913  5 H  px               112     -0.380913  6 H  py         

 Vector   55  Occ=0.000000D+00  E= 4.645545D-01  Symmetry=e
              MO Center= -4.3D-01,  6.2D-02, -1.8D+00, r^2= 8.6D+00
   Bfn.  Coefficient  Atom+Function         Bfn.  Coefficient  Atom+Function  
  ----- ------------  ---------------      ----- ------------  ---------------
    99      4.704268  5 H  s                107     -2.590322  6 H  s          
   103      2.426782  5 H  px                75      2.231377  3 C  px         
    91     -2.113946  4 H  s                112     -1.374844  6 H  py         
    64     -0.922904  2 Cl dxz               96      0.914670  4 H  py         
    76     -0.739945  3 C  py                35     -0.713244  1 I  dxz        

 Vector   56  Occ=0.000000D+00  E= 4.645545D-01  Symmetry=e
              MO Center=  4.3D-01, -6.2D-02, -1.8D+00, r^2= 8.6D+00
   Bfn.  Coefficient  Atom+Function         Bfn.  Coefficient  Atom+Function  
  ----- ------------  ---------------      ----- ------------  ---------------
    91      4.211533  4 H  s                107     -3.936498  6 H  s          
    76     -2.231377  3 C  py               112     -2.001965  6 H  py         
    95     -1.647480  4 H  px                96     -1.529746  4 H  py         
    66      0.922904  2 Cl dyz               75     -0.739945  3 C  px         
    37      0.713244  1 I  dyz              111      0.642034  6 H  px         

 Vector   57  Occ=0.000000D+00  E= 4.930056D-01  Symmetry=a1
              MO Center= -1.5D-13, -4.9D-13, -1.1D+00, r^2= 9.6D+00
   Bfn.  Coefficient  Atom+Function         Bfn.  Coefficient  Atom+Function  
  ----- ------------  ---------------      ----- ------------  ---------------
    70     18.813841  3 C  s                 91     -7.179440  4 H  s          
    99     -7.179440  5 H  s                107     -7.179440  6 H  s          
     5     -2.886492  1 I  s                 71      2.769588  3 C  s          
   103     -2.582239  5 H  px               112     -2.582239  6 H  py         
     4      2.293396  1 I  s                 95      1.890330  4 H  px         

 Vector   58  Occ=0.000000D+00  E= 5.058689D-01  Symmetry=a1
              MO Center= -3.5D-14, -1.1D-13, -2.3D+00, r^2= 1.1D+01
   Bfn.  Coefficient  Atom+Function         Bfn.  Coefficient  Atom+Function  
  ----- ------------  ---------------      ----- ------------  ---------------
    71      8.265597  3 C  s                 43     -5.085291  2 Cl s          
     5     -3.242372  1 I  s                 91     -2.048875  4 H  s          
    99     -2.048875  5 H  s                107     -2.048875  6 H  s          
    62      1.673721  2 Cl dxx               65      1.673721  2 Cl dyy        
    38      1.508275  1 I  dzz               42      1.505451  2 Cl s          

 Vector   59  Occ=0.000000D+00  E= 5.222154D-01  Symmetry=e
              MO Center= -2.5D-01, -4.4D-01, -1.4D+00, r^2= 8.4D+00
   Bfn.  Coefficient  Atom+Function         Bfn.  Coefficient  Atom+Function  
  ----- ------------  ---------------      ----- ------------  ---------------
   107      5.045146  6 H  s                 99     -4.313058  5 H  s          
    76      2.612462  3 C  py               112      2.567970  6 H  py         
   103     -2.223056  5 H  px                75     -1.988978  3 C  px         
   113     -1.593728  6 H  pz               105      1.362466  5 H  pz         
    91     -0.732088  4 H  s                 66      0.704558  2 Cl dyz        

 Vector   60  Occ=0.000000D+00  E= 5.222154D-01  Symmetry=e
              MO Center=  2.5D-01,  4.4D-01, -1.4D+00, r^2= 8.4D+00
   Bfn.  Coefficient  Atom+Function         Bfn.  Coefficient  Atom+Function  
  ----- ------------  ---------------      ----- ------------  ---------------
    91      5.402962  4 H  s                 99     -3.335488  5 H  s          
    75     -2.612462  3 C  px               107     -2.067474  6 H  s          
    96     -2.019915  4 H  py                76     -1.988978  3 C  py         
    95     -1.949203  4 H  px                97     -1.706759  4 H  pz         
   103     -1.597353  5 H  px               105      1.053658  5 H  pz         

 Vector   61  Occ=0.000000D+00  E= 5.584755D-01  Symmetry=a1
              MO Center= -4.3D-14, -1.8D-14, -2.8D+00, r^2= 1.3D+01
   Bfn.  Coefficient  Atom+Function         Bfn.  Coefficient  Atom+Function  
  ----- ------------  ---------------      ----- ------------  ---------------
    70      7.700211  3 C  s                 89      3.337324  3 C  dzz        
    91     -2.835261  4 H  s                 99     -2.835261  5 H  s          
   107     -2.835261  6 H  s                 55     -1.760531  2 Cl pz         
    67     -1.668945  2 Cl dzz               43     -1.584395  2 Cl s          
    77      1.437098  3 C  pz                71      1.242777  3 C  s          

 Vector   62  Occ=0.000000D+00  E= 5.707609D-01  Symmetry=e
              MO Center=  2.2D-01, -3.3D-02, -2.1D+00, r^2= 7.6D+00
   Bfn.  Coefficient  Atom+Function         Bfn.  Coefficient  Atom+Function  
  ----- ------------  ---------------      ----- ------------  ---------------
    99      8.160519  5 H  s                107     -4.486276  6 H  s          
    91     -3.674242  4 H  s                 86      3.360573  3 C  dxz        
    75      2.221931  3 C  px               103      2.079353  5 H  px         
    95      1.915901  4 H  px                85      1.898361  3 C  dxy        
    84     -1.886257  3 C  dxx               87      1.886257  3 C  dyy        

 Vector   63  Occ=0.000000D+00  E= 5.707609D-01  Symmetry=e
              MO Center= -2.2D-01,  3.3D-02, -2.1D+00, r^2= 7.6D+00
   Bfn.  Coefficient  Atom+Function         Bfn.  Coefficient  Atom+Function  
  ----- ------------  ---------------      ----- ------------  ---------------
    91      7.301630  4 H  s                107     -6.832802  6 H  s          
    85     -3.772514  3 C  dxy               88     -3.360573  3 C  dyz        
    76     -2.221931  3 C  py               112     -2.039685  6 H  py         
    96     -1.995238  4 H  py               104     -1.831786  5 H  py         
    86     -1.110627  3 C  dxz               66     -1.075117  2 Cl dyz        

 Vector   64  Occ=0.000000D+00  E= 6.165666D-01  Symmetry=e
              MO Center=  4.9D-03,  1.3D-01, -7.6D-01, r^2= 7.4D+00
   Bfn.  Coefficient  Atom+Function         Bfn.  Coefficient  Atom+Function  
  ----- ------------  ---------------      ----- ------------  ---------------
   107      8.306053  6 H  s                 99     -5.233800  5 H  s          
    84      3.851560  3 C  dxx               87     -3.851560  3 C  dyy        
    88     -3.713238  3 C  dyz              104      3.163296  5 H  py         
    91     -3.072253  4 H  s                 85      3.027404  3 C  dxy        
    96      2.928409  4 H  py               113     -2.882282  6 H  pz         

 Vector   65  Occ=0.000000D+00  E= 6.165666D-01  Symmetry=e
              MO Center= -4.9D-03, -1.3D-01, -7.6D-01, r^2= 7.4D+00
   Bfn.  Coefficient  Atom+Function         Bfn.  Coefficient  Atom+Function  
  ----- ------------  ---------------      ----- ------------  ---------------
    91     -7.817238  4 H  s                 85      7.703121  3 C  dxy        
    99      6.569268  5 H  s                 86     -3.713238  3 C  dxz        
   111      3.645134  6 H  px                97      2.712658  4 H  pz         
   105     -2.279600  5 H  pz               104      2.036248  5 H  py         
    95      1.964733  4 H  px               103      1.729845  5 H  px         

 Vector   66  Occ=0.000000D+00  E= 6.469532D-01  Symmetry=a1
              MO Center=  6.7D-13,  2.0D-13, -1.5D+00, r^2= 8.1D+00
   Bfn.  Coefficient  Atom+Function         Bfn.  Coefficient  Atom+Function  
  ----- ------------  ---------------      ----- ------------  ---------------
    70     62.552183  3 C  s                 91    -21.506008  4 H  s          
    99    -21.506008  5 H  s                107    -21.506008  6 H  s          
    71    -21.016311  3 C  s                 84     11.216784  3 C  dxx        
    87     11.216784  3 C  dyy              103     -5.314969  5 H  px         
   112     -5.314969  6 H  py                89      4.743362  3 C  dzz        

 Vector   67  Occ=0.000000D+00  E= 6.823652D-01  Symmetry=e
              MO Center=  1.7D-02, -3.6D-02,  8.7D-01, r^2= 6.1D+00
   Bfn.  Coefficient  Atom+Function         Bfn.  Coefficient  Atom+Function  
  ----- ------------  ---------------      ----- ------------  ---------------
   107      3.064710  6 H  s                113     -2.024622  6 H  pz         
    88     -2.001497  3 C  dyz               91     -1.785136  4 H  s          
    16     -1.660447  1 I  py                85      1.653440  3 C  dxy        
   104      1.419519  5 H  py                13      1.411498  1 I  py         
    99     -1.279574  5 H  s                 97      1.179304  4 H  pz         

 Vector   68  Occ=0.000000D+00  E= 6.823652D-01  Symmetry=e
              MO Center= -1.7D-02,  3.6D-02,  8.7D-01, r^2= 6.1D+00
   Bfn.  Coefficient  Atom+Function         Bfn.  Coefficient  Atom+Function  
  ----- ------------  ---------------      ----- ------------  ---------------
    99      2.800060  5 H  s                 91     -2.508174  4 H  s          
    85      2.323136  3 C  dxy               86     -2.001497  3 C  dxz        
   105     -1.849788  5 H  pz                15     -1.660447  1 I  px         
    97      1.656960  4 H  pz               111      1.490876  6 H  px         
    12      1.411498  1 I  px                95      1.016901  4 H  px         

 Vector   69  Occ=0.000000D+00  E= 7.552904D-01  Symmetry=e
              MO Center=  2.5D-02, -8.6D-03,  1.5D+00, r^2= 3.4D+00
   Bfn.  Coefficient  Atom+Function         Bfn.  Coefficient  Atom+Function  
  ----- ------------  ---------------      ----- ------------  ---------------
    28      1.729089  1 I  dxy               34     -0.973153  1 I  dxy        
    85     -0.636142  3 C  dxy               22     -0.617810  1 I  dxy        
    88      0.579878  3 C  dyz               27      0.538720  1 I  dxx        
    30     -0.538720  1 I  dyy              107     -0.461824  6 H  s          
   104     -0.447274  5 H  py                91      0.444214  4 H  s          

 Vector   70  Occ=0.000000D+00  E= 7.552904D-01  Symmetry=e
              MO Center= -2.5D-02,  8.6D-03,  1.5D+00, r^2= 3.4D+00
   Bfn.  Coefficient  Atom+Function         Bfn.  Coefficient  Atom+Function  
  ----- ------------  ---------------      ----- ------------  ---------------
    28      1.077439  1 I  dxy               27     -0.864545  1 I  dxx        
    30      0.864545  1 I  dyy               34     -0.606396  1 I  dxy        
    86      0.579878  3 C  dxz               99     -0.523101  5 H  s          
    33      0.486577  1 I  dxx               36     -0.486577  1 I  dyy        
    85     -0.396396  3 C  dxy               22     -0.384973  1 I  dxy        

 Vector   71  Occ=0.000000D+00  E= 7.689893D-01  Symmetry=a1
              MO Center= -7.2D-14,  5.1D-14,  1.5D+00, r^2= 7.0D+00
   Bfn.  Coefficient  Atom+Function         Bfn.  Coefficient  Atom+Function  
  ----- ------------  ---------------      ----- ------------  ---------------
     5     11.621414  1 I  s                 70      6.110709  3 C  s          
    71     -5.422632  3 C  s                 33     -4.382143  1 I  dxx        
    36     -4.382143  1 I  dyy                3     -3.874884  1 I  s          
    38     -3.616870  1 I  dzz                4      1.787898  1 I  s          
    32     -1.430581  1 I  dzz               84      1.410677  3 C  dxx        

 Vector   72  Occ=0.000000D+00  E= 7.727260D-01  Symmetry=e
              MO Center=  3.3D-02,  6.5D-03,  1.2D+00, r^2= 4.8D+00
   Bfn.  Coefficient  Atom+Function         Bfn.  Coefficient  Atom+Function  
  ----- ------------  ---------------      ----- ------------  ---------------
    99      4.366801  5 H  s                107     -3.066671  6 H  s          
    84     -1.970097  3 C  dxx               87      1.970097  3 C  dyy        
    29     -1.696206  1 I  dxz              111      1.607766  6 H  px         
    95      1.586563  4 H  px                35      1.501192  1 I  dxz        
    91     -1.300130  4 H  s                105     -1.257562  5 H  pz         

 Vector   73  Occ=0.000000D+00  E= 7.727260D-01  Symmetry=e
              MO Center= -3.3D-02, -6.5D-03,  1.2D+00, r^2= 4.8D+00
   Bfn.  Coefficient  Atom+Function         Bfn.  Coefficient  Atom+Function  
  ----- ------------  ---------------      ----- ------------  ---------------
    91     -4.291717  4 H  s                 85      3.940193  3 C  dxy        
   107      3.271804  6 H  s                104      1.786294  5 H  py         
    31     -1.696206  1 I  dyz               37      1.501192  1 I  dyz        
    97      1.235939  4 H  pz                96      1.229508  4 H  py         
   112      1.208305  6 H  py                76      1.173143  3 C  py         

 Vector   74  Occ=0.000000D+00  E= 8.123354D-01  Symmetry=a1
              MO Center=  9.3D-14,  8.0D-14,  5.4D-02, r^2= 1.0D+01
   Bfn.  Coefficient  Atom+Function         Bfn.  Coefficient  Atom+Function  
  ----- ------------  ---------------      ----- ------------  ---------------
    70     29.820965  3 C  s                 91    -10.301804  4 H  s          
    99    -10.301804  5 H  s                107    -10.301804  6 H  s          
    71     -6.842791  3 C  s                 84      4.902308  3 C  dxx        
    87      4.902308  3 C  dyy              103     -2.691453  5 H  px         
   112     -2.691453  6 H  py                77      2.677730  3 C  pz         

 Vector   75  Occ=0.000000D+00  E= 8.879179D-01  Symmetry=a1
              MO Center=  3.6D-14,  1.8D-14, -1.9D-01, r^2= 8.8D+00
   Bfn.  Coefficient  Atom+Function         Bfn.  Coefficient  Atom+Function  
  ----- ------------  ---------------      ----- ------------  ---------------
    70     12.608372  3 C  s                 71    -10.563760  3 C  s          
    17     -3.335489  1 I  pz                91     -3.111584  4 H  s          
    99     -3.111584  5 H  s                107     -3.111584  6 H  s          
    84      2.598348  3 C  dxx               87      2.598348  3 C  dyy        
    77      1.701100  3 C  pz                 4      1.631457  1 I  s          

 Vector   76  Occ=0.000000D+00  E= 9.988194D-01  Symmetry=e
              MO Center= -1.1D-01, -3.4D-02, -1.2D+00, r^2= 4.4D+00
   Bfn.  Coefficient  Atom+Function         Bfn.  Coefficient  Atom+Function  
  ----- ------------  ---------------      ----- ------------  ---------------
    84      2.249204  3 C  dxx               87     -2.249204  3 C  dyy        
    99     -2.215351  5 H  s                 75     -1.814255  3 C  px         
   107      1.659460  6 H  s                 85     -1.117787  3 C  dxy        
    76      1.092075  3 C  py                98     -1.064817  5 H  s          
    96      0.899824  4 H  py               105      0.840084  5 H  pz         

 Vector   77  Occ=0.000000D+00  E= 9.988194D-01  Symmetry=e
              MO Center=  1.1D-01,  3.4D-02, -1.2D+00, r^2= 4.4D+00
   Bfn.  Coefficient  Atom+Function         Bfn.  Coefficient  Atom+Function  
  ----- ------------  ---------------      ----- ------------  ---------------
    85      4.498408  3 C  dxy               91     -2.237123  4 H  s          
    76      1.814255  3 C  py               107      1.599978  6 H  s          
   104      1.136065  5 H  py                75      1.092075  3 C  px         
    90     -1.075282  4 H  s                111      0.915283  6 H  px         
    97      0.848341  4 H  pz               106      0.769035  6 H  s          

 Vector   78  Occ=0.000000D+00  E= 1.040175D+00  Symmetry=a1
              MO Center= -1.2D-13, -1.7D-13, -2.8D-01, r^2= 5.2D+00
   Bfn.  Coefficient  Atom+Function         Bfn.  Coefficient  Atom+Function  
  ----- ------------  ---------------      ----- ------------  ---------------
    70     12.801492  3 C  s                 91     -6.225551  4 H  s          
    99     -6.225551  5 H  s                107     -6.225551  6 H  s          
    71      4.295292  3 C  s                  4      2.862939  1 I  s          
    89     -1.504824  3 C  dzz               17     -1.493474  1 I  pz         
   103     -1.332394  5 H  px               112     -1.332394  6 H  py         

 Vector   79  Occ=0.000000D+00  E= 1.044172D+00  Symmetry=e
              MO Center= -8.0D-02, -9.3D-03, -1.4D+00, r^2= 3.7D+00
   Bfn.  Coefficient  Atom+Function         Bfn.  Coefficient  Atom+Function  
  ----- ------------  ---------------      ----- ------------  ---------------
    99     12.041325  5 H  s                107     -8.016686  6 H  s          
    75      6.541410  3 C  px                91     -4.024638  4 H  s          
   103      3.624842  5 H  px                76     -3.167289  3 C  py         
   112     -2.313149  6 H  py                95      1.303495  4 H  px         
    84     -1.104630  3 C  dxx               87      1.104630  3 C  dyy        

 Vector   80  Occ=0.000000D+00  E= 1.044172D+00  Symmetry=e
              MO Center=  8.0D-02,  9.3D-03, -1.4D+00, r^2= 3.7D+00
   Bfn.  Coefficient  Atom+Function         Bfn.  Coefficient  Atom+Function  
  ----- ------------  ---------------      ----- ------------  ---------------
    91     11.580498  4 H  s                107     -9.275688  6 H  s          
    76     -6.541410  3 C  py                75     -3.167289  3 C  px         
   112     -2.918966  6 H  py                96     -2.715247  4 H  py         
    95     -2.430766  4 H  px                99     -2.304810  5 H  s          
    85     -2.209261  3 C  dxy               73      0.913122  3 C  py         

 Vector   81  Occ=0.000000D+00  E= 1.118613D+00  Symmetry=a1
              MO Center= -5.1D-14,  1.7D-13, -7.9D-01, r^2= 4.2D+00
   Bfn.  Coefficient  Atom+Function         Bfn.  Coefficient  Atom+Function  
  ----- ------------  ---------------      ----- ------------  ---------------
    70     42.337422  3 C  s                 91    -16.496961  4 H  s          
    99    -16.496961  5 H  s                107    -16.496961  6 H  s          
    77      5.189447  3 C  pz                84      4.211302  3 C  dxx        
    87      4.211302  3 C  dyy              103     -4.122732  5 H  px         
   112     -4.122732  6 H  py                 5     -3.240460  1 I  s          

 Vector   82  Occ=0.000000D+00  E= 1.168865D+00  Symmetry=e
              MO Center= -1.5D-03, -8.0D-03, -4.4D+00, r^2= 1.7D+00
   Bfn.  Coefficient  Atom+Function         Bfn.  Coefficient  Atom+Function  
  ----- ------------  ---------------      ----- ------------  ---------------
    56      0.860331  2 Cl dxx               59     -0.860331  2 Cl dyy        
   107      0.765149  6 H  s                 57      0.531279  2 Cl dxy        
    99     -0.533623  5 H  s                 84      0.470815  3 C  dxx        
    87     -0.470815  3 C  dyy               62     -0.442416  2 Cl dxx        
    65      0.442416  2 Cl dyy               76      0.418150  3 C  py         

[...]
   101      0.602105  5 H  py               108     -0.602105  6 H  px         
   104     -0.476121  5 H  py               111      0.476121  6 H  px         
    92      0.440772  4 H  px                93     -0.440772  4 H  py         
    95     -0.348545  4 H  px                96      0.348545  4 H  py         
   100      0.161334  5 H  px               109     -0.161334  6 H  py         

 Vector   95  Occ=0.000000D+00  E= 1.851358D+00  Symmetry=e
              MO Center=  1.8D-02, -8.7D-03, -1.1D+00, r^2= 2.0D+00
   Bfn.  Coefficient  Atom+Function         Bfn.  Coefficient  Atom+Function  
  ----- ------------  ---------------      ----- ------------  ---------------
    99      4.876936  5 H  s                 75      3.924435  3 C  px         
    91     -2.843040  4 H  s                107     -2.033896  6 H  s          
   103      1.507497  5 H  px                85      1.172810  3 C  dxy        
    95      0.999256  4 H  px                84     -0.822971  3 C  dxx        
    87      0.822971  3 C  dyy               86      0.729869  3 C  dxz        

 Vector   96  Occ=0.000000D+00  E= 1.851358D+00  Symmetry=e
              MO Center= -1.8D-02,  8.7D-03, -1.1D+00, r^2= 2.0D+00
   Bfn.  Coefficient  Atom+Function         Bfn.  Coefficient  Atom+Function  
  ----- ------------  ---------------      ----- ------------  ---------------
   107      4.457130  6 H  s                 91     -3.989971  4 H  s          
    76      3.924435  3 C  py                85      1.645941  3 C  dxy        
   112      1.431178  6 H  py                96      1.151893  4 H  py         
    88      0.729869  3 C  dyz               75      0.658722  3 C  px         
   104      0.643651  5 H  py                95      0.635216  4 H  px         

 Vector   97  Occ=0.000000D+00  E= 1.959256D+00  Symmetry=a1
              MO Center=  3.2D-15, -2.3D-14,  2.8D-01, r^2= 3.8D+00
   Bfn.  Coefficient  Atom+Function         Bfn.  Coefficient  Atom+Function  
  ----- ------------  ---------------      ----- ------------  ---------------
    70     15.196041  3 C  s                 91     -6.327063  4 H  s          
    99     -6.327063  5 H  s                107     -6.327063  6 H  s          
     5     -4.966258  1 I  s                 71     -4.860946  3 C  s          
     4     -4.292957  1 I  s                 84      3.417863  3 C  dxx        
    87      3.417863  3 C  dyy               27      2.676097  1 I  dxx        

 Vector   98  Occ=0.000000D+00  E= 2.073065D+00  Symmetry=a1
              MO Center= -8.7D-15, -3.0D-14, -6.9D-01, r^2= 3.1D+00
   Bfn.  Coefficient  Atom+Function         Bfn.  Coefficient  Atom+Function  
  ----- ------------  ---------------      ----- ------------  ---------------
    70     15.338972  3 C  s                 91     -6.556190  4 H  s          
    99     -6.556190  5 H  s                107     -6.556190  6 H  s          
     4      6.467634  1 I  s                 71     -6.435672  3 C  s          
     5      3.878218  1 I  s                 84      3.569847  3 C  dxx        
    87      3.569847  3 C  dyy               17     -2.485022  1 I  pz         

 Vector   99  Occ=0.000000D+00  E= 2.315060D+00  Symmetry=a1
              MO Center=  6.7D-13,  5.4D-13, -7.7D-01, r^2= 3.0D+00
   Bfn.  Coefficient  Atom+Function         Bfn.  Coefficient  Atom+Function  
  ----- ------------  ---------------      ----- ------------  ---------------
    70     21.757448  3 C  s                 91     -7.835087  4 H  s          
    99     -7.835087  5 H  s                107     -7.835087  6 H  s          
    89      3.888084  3 C  dzz               84      3.296274  3 C  dxx        
    87      3.296274  3 C  dyy               71     -3.146504  3 C  s          
    77      3.142096  3 C  pz                17      2.325016  1 I  pz         

 Vector  100  Occ=0.000000D+00  E= 2.316943D+00  Symmetry=e
              MO Center=  4.8D-02, -7.2D-02, -1.1D+00, r^2= 1.7D+00
   Bfn.  Coefficient  Atom+Function         Bfn.  Coefficient  Atom+Function  
  ----- ------------  ---------------      ----- ------------  ---------------
   107      2.626081  6 H  s                 91     -1.684392  4 H  s          
    76      1.587205  3 C  py                99     -0.941688  5 H  s          
    82     -0.901465  3 C  dyz              112      0.871504  6 H  py         
    88      0.664812  3 C  dyz              113      0.592788  6 H  pz         
    92      0.585148  4 H  px               109      0.518717  6 H  py         

 Vector  101  Occ=0.000000D+00  E= 2.316943D+00  Symmetry=e
              MO Center= -4.8D-02,  7.2D-02, -1.1D+00, r^2= 1.7D+00
   Bfn.  Coefficient  Atom+Function         Bfn.  Coefficient  Atom+Function  
  ----- ------------  ---------------      ----- ------------  ---------------
    99      2.488653  5 H  s                 91     -2.059852  4 H  s          
    75      1.587205  3 C  px                80     -0.901465  3 C  dxz        
   103      0.828241  5 H  px                86      0.664812  3 C  dxz        
    93      0.581957  4 H  py               105      0.561767  5 H  pz         
   108     -0.550542  6 H  px                95      0.519506  4 H  px         

 Vector  102  Occ=0.000000D+00  E= 2.393442D+00  Symmetry=e
              MO Center=  2.4D-02, -8.2D-02, -1.1D+00, r^2= 1.5D+00
   Bfn.  Coefficient  Atom+Function         Bfn.  Coefficient  Atom+Function  
  ----- ------------  ---------------      ----- ------------  ---------------
   107      2.292582  6 H  s                 76      1.536928  3 C  py         
    82      1.379150  3 C  dyz               91     -1.170482  4 H  s          
    99     -1.122101  5 H  s                112      0.737190  6 H  py         
   110      0.544451  6 H  pz               113     -0.525678  6 H  pz         
    92      0.451280  4 H  px                88     -0.437312  3 C  dyz        

 Vector  103  Occ=0.000000D+00  E= 2.393442D+00  Symmetry=e
              MO Center= -2.4D-02,  8.2D-02, -1.1D+00, r^2= 1.5D+00
   Bfn.  Coefficient  Atom+Function         Bfn.  Coefficient  Atom+Function  
  ----- ------------  ---------------      ----- ------------  ---------------
    99     -1.999401  5 H  s                 91      1.971468  4 H  s          
    75     -1.536928  3 C  px                80     -1.379150  3 C  dxz        
   103     -0.659594  5 H  px                95     -0.512387  4 H  px         
   108      0.487859  6 H  px               102     -0.474825  5 H  pz         
    94      0.468191  4 H  pz               105      0.458453  5 H  pz         

 Vector  104  Occ=0.000000D+00  E= 2.990067D+00  Symmetry=a1
              MO Center=  9.8D-15, -2.6D-15, -1.2D+00, r^2= 1.8D+00
   Bfn.  Coefficient  Atom+Function         Bfn.  Coefficient  Atom+Function  
  ----- ------------  ---------------      ----- ------------  ---------------
    70     14.329286  3 C  s                 91     -6.180491  4 H  s          
    99     -6.180491  5 H  s                107     -6.180491  6 H  s          
     5     -1.572717  1 I  s                103     -1.531038  5 H  px         
   112     -1.531038  6 H  py                71      1.439548  3 C  s          
    84      1.439015  3 C  dxx               87      1.439015  3 C  dyy        

 Vector  105  Occ=0.000000D+00  E= 3.049241D+00  Symmetry=e
              MO Center=  2.8D-02, -1.4D-01, -1.2D+00, r^2= 1.3D+00
   Bfn.  Coefficient  Atom+Function         Bfn.  Coefficient  Atom+Function  
  ----- ------------  ---------------      ----- ------------  ---------------
   107      2.940240  6 H  s                 76      2.299489  3 C  py         
    99     -1.549549  5 H  s                 91     -1.390691  4 H  s          
    79      1.125187  3 C  dxy              106      1.121705  6 H  s          
    78      1.048647  3 C  dxx               81     -1.048647  3 C  dyy        
   109      1.019133  6 H  py                73      0.760666  3 C  py         

 Vector  106  Occ=0.000000D+00  E= 3.049241D+00  Symmetry=e
              MO Center= -2.8D-02,  1.4D-01, -1.2D+00, r^2= 1.3D+00
   Bfn.  Coefficient  Atom+Function         Bfn.  Coefficient  Atom+Function  
  ----- ------------  ---------------      ----- ------------  ---------------
    91      2.592181  4 H  s                 99     -2.500464  5 H  s          
    75     -2.299489  3 C  px                79     -2.097294  3 C  dxy        
    90      0.988920  4 H  s                 98     -0.953930  5 H  s          
   100     -0.899998  5 H  px                85     -0.857120  3 C  dxy        
    72     -0.760666  3 C  px                92     -0.736686  4 H  px         

 Vector  107  Occ=0.000000D+00  E= 4.188240D+00  Symmetry=a1
              MO Center=  3.7D-16,  7.7D-18, -4.2D+00, r^2= 1.3D+00
   Bfn.  Coefficient  Atom+Function         Bfn.  Coefficient  Atom+Function  
  ----- ------------  ---------------      ----- ------------  ---------------
    42      2.843998  2 Cl s                 41      2.779792  2 Cl s          
    56     -2.296983  2 Cl dxx               59     -2.296983  2 Cl dyy        
    61     -2.288049  2 Cl dzz               43      1.917006  2 Cl s          
    70     -1.716520  3 C  s                 40     -1.618787  2 Cl s          
    62     -1.113114  2 Cl dxx               65     -1.113114  2 Cl dyy        

 Vector  108  Occ=0.000000D+00  E= 5.378410D+00  Symmetry=a1
              MO Center= -8.3D-15,  1.4D-15, -1.2D+00, r^2= 6.7D-01
   Bfn.  Coefficient  Atom+Function         Bfn.  Coefficient  Atom+Function  
  ----- ------------  ---------------      ----- ------------  ---------------
    70      5.140235  3 C  s                 71     -4.488946  3 C  s          
    69     -3.672609  3 C  s                 78      2.152330  3 C  dxx        
    81      2.152330  3 C  dyy               83      1.781681  3 C  dzz        
    84      1.673228  3 C  dxx               87      1.673228  3 C  dyy        
    91     -1.605913  4 H  s                 99     -1.605913  5 H  s          

 Vector  109  Occ=0.000000D+00  E= 1.721879D+01  Symmetry=a1
              MO Center=  3.7D-15,  2.3D-15,  1.0D+00, r^2= 1.9D+00
   Bfn.  Coefficient  Atom+Function         Bfn.  Coefficient  Atom+Function  
  ----- ------------  ---------------      ----- ------------  ---------------
     3     12.470119  1 I  s                  1     11.787892  1 I  s          
    21     -9.192320  1 I  dxx               24     -9.192320  1 I  dyy        
    26     -9.191218  1 I  dzz                4      6.403606  1 I  s          
     5      6.089582  1 I  s                 27     -5.590012  1 I  dxx        
    30     -5.590012  1 I  dyy               32     -5.583253  1 I  dzz        

 Vector  110  Occ=0.000000D+00  E= 1.899421D+01  Symmetry=e
              MO Center=  3.0D-03, -3.0D-04,  9.8D-01, r^2= 4.5D-01
   Bfn.  Coefficient  Atom+Function         Bfn.  Coefficient  Atom+Function  
  ----- ------------  ---------------      ----- ------------  ---------------
     6      1.528895  1 I  px                 9     -1.088561  1 I  px         
    12     -0.983321  1 I  px                15      0.552481  1 I  px         
     7     -0.544954  1 I  py                99      0.546493  5 H  s          
    10      0.388003  1 I  py                13      0.350491  1 I  py         
   107     -0.311474  6 H  s                 75      0.289899  3 C  px         

 Vector  111  Occ=0.000000D+00  E= 1.899421D+01  Symmetry=e
              MO Center= -3.0D-03,  3.0D-04,  9.8D-01, r^2= 4.5D-01
   Bfn.  Coefficient  Atom+Function         Bfn.  Coefficient  Atom+Function  
  ----- ------------  ---------------      ----- ------------  ---------------
     7      1.528895  1 I  py                10     -1.088561  1 I  py         
    13     -0.983321  1 I  py                16      0.552481  1 I  py         
     6      0.544954  1 I  px                91     -0.495347  4 H  s          
   107      0.451206  6 H  s                  9     -0.388003  1 I  px         
    12     -0.350491  1 I  px                76      0.289899  3 C  py         

 Vector  112  Occ=0.000000D+00  E= 1.996804D+01  Symmetry=a1
              MO Center=  2.7D-15,  2.5D-15,  9.7D-01, r^2= 5.5D-01
   Bfn.  Coefficient  Atom+Function         Bfn.  Coefficient  Atom+Function  
  ----- ------------  ---------------      ----- ------------  ---------------
    70      5.464730  3 C  s                 91     -1.976296  4 H  s          
    99     -1.976296  5 H  s                107     -1.976296  6 H  s          
     8     -1.695142  1 I  pz                71     -1.605304  3 C  s          
    14      1.427309  1 I  pz                 3      1.363912  1 I  s          
     1      1.333592  1 I  s                  4      1.262716  1 I  s          

 Vector  113  Occ=0.000000D+00  E= 6.126093D+01  Symmetry=a1
              MO Center=  4.0D-17,  5.6D-17,  9.9D-01, r^2= 4.9D-02
   Bfn.  Coefficient  Atom+Function         Bfn.  Coefficient  Atom+Function  
  ----- ------------  ---------------      ----- ------------  ---------------
     1      5.762043  1 I  s                  2     -2.648332  1 I  s          
     3      2.310522  1 I  s                 21     -2.231873  1 I  dxx        
    24     -2.231873  1 I  dyy               26     -2.231796  1 I  dzz        
    27     -0.676554  1 I  dxx               30     -0.676554  1 I  dyy        
    32     -0.675327  1 I  dzz                4      0.562126  1 I  s          


 center of mass
 --------------
 x =   0.00000000 y =   0.00000000 z =  -0.41572896

 moments of inertia (a.u.)
 ------------------
        2679.798602767682          -0.000000000000           0.000000000000
          -0.000000000000        2679.798602767682           0.000000000000
           0.000000000000           0.000000000000          13.606552432827

     Multipole analysis of the density
     ---------------------------------

     L   x y z        total         alpha         beta         nuclear
     -   - - -        -----         -----         ----         -------
     0   0 0 0     -1.000000    -26.000000    -26.000000     51.000000

     1   1 0 0      0.000000     -0.000000     -0.000000      0.000000
     1   0 1 0      0.000000      0.000000      0.000000      0.000000
     1   0 0 1      5.631803     56.683457     56.683457   -107.735110

     2   2 0 0    -39.400440    -23.075447    -23.075447      6.750454
     2   1 1 0     -0.000000     -0.000000     -0.000000      0.000000
     2   1 0 1     -0.000000      0.000000      0.000000     -0.000000
     2   0 2 0    -39.400440    -23.075447    -23.075447      6.750454
     2   0 1 1     -0.000000     -0.000000     -0.000000     -0.000000
     2   0 0 2    -97.028936   -645.837121   -645.837121   1194.645305


            General Information
            -------------------
          SCF calculation type: DFT
          Wavefunction type:  closed shell.
          No. of atoms     :     6
          No. of electrons :    52
           Alpha electrons :    26
            Beta electrons :    26
          Charge           :    -1
          Spin multiplicity:     1
          Use of symmetry is: on ; symmetry adaption is: on 
          Maximum number of iterations:  50
          AO basis - number of functions:   113
                     number of shells:    44
          Convergence on energy requested:  1.00D-06
          Convergence on density requested:  1.00D-05
          Convergence on gradient requested:  5.00D-04

              XC Information
              --------------
                         B3LYP Method XC Potential
                     Hartree-Fock (Exact) Exchange  0.200          
                        Slater Exchange Functional  0.800 local    
                    Becke 1988 Exchange Functional  0.720 non-local
              Lee-Yang-Parr Correlation Functional  0.810          
                  VWN I RPA Correlation Functional  0.190 local    

             Grid Information
             ----------------
          Grid used for XC integration:  medium    
          Radial quadrature: Mura-Knowles        
          Angular quadrature: Lebedev. 
          Tag              B.-S. Rad. Rad. Pts. Rad. Cut. Ang. Pts.
          ---              ---------- --------- --------- ---------
          I                   1.40      123          15.0       590
          Cl                  1.00       88          17.0       590
          C                   0.70       49          12.0       434
          H                   0.35       45          11.0       434
          Grid pruning is: on 
          Number of quadrature shells:   305
          Spatial weights used:  Erf1

          Convergence Information
          -----------------------
          Convergence aids based upon iterative change in 
          total energy or number of iterations. 
          Levelshifting, if invoked, occurs when the 
          HOMO/LUMO gap drops below (HL_TOL):  1.00D-02
          DIIS, if invoked, will attempt to extrapolate 
          using up to (NFOCK): 10 stored Fock matrices.

                    Damping( 0%)  Levelshifting(0.5)       DIIS
                  --------------- ------------------- ---------------
          dE  on:    start            ASAP                start   
          dE off:    2 iters         50 iters            50 iters 


      Screening Tolerance Information
      -------------------------------
          Density screening/tol_rho:  1.00D-10
          AO Gaussian exp screening on grid/accAOfunc:  14
          CD Gaussian exp screening on grid/accCDfunc:  20
          XC Gaussian exp screening on grid/accXCfunc:  20
          Schwarz screening/accCoul:  1.00D-08



                            NWChem DFT Gradient Module
                            --------------------------


                                       Title



  charge          =  -1.00
  wavefunction    = closed shell

  Rotation of axis 
  Using symmetry


                         DFT ENERGY GRADIENTS

    atom               coordinates                        gradient
                 x          y          z           x          y          z
   1 I       0.000000   0.000000   1.863309    0.000000   0.000000  -0.073773
   2 Cl      0.000000   0.000000  -7.912001    0.000000   0.000000  -0.002404
   3 C       0.000000  -0.000000  -2.242823    0.000000   0.000000  -0.024196
   4 H       1.500050   1.500050  -2.118962    0.018484   0.018484   0.033458
   5 H      -2.049107   0.549057  -2.118962   -0.025250   0.006766   0.033458
   6 H       0.549057  -2.049107  -2.118962    0.006766  -0.025250   0.033458

                 ----------------------------------------
                 |  Time  |  1-e(secs)   |  2-e(secs)   |
                 ----------------------------------------
                 |  CPU   |       0.03   |       6.95   |
                 ----------------------------------------
                 |  WALL  |       0.03   |       6.97   |
                 ----------------------------------------
  name = drv.hess
 ------------------------------------------------------------------------
 geom_hnd_get_data: open failed                   0
 ------------------------------------------------------------------------
 ------------------------------------------------------------------------
  current input line : 
    60: task python
 ------------------------------------------------------------------------
 ------------------------------------------------------------------------
 An error occured while trying to read or write to disk space
 ------------------------------------------------------------------------
 For more information see the NWChem manual at https://nwchemgit.github.io


 For further details see manual section:                                                                                                                                                                                                                                                                
