 argument  1 = LIIC_SN1_CH3Cl.nw



============================== echo of input deck ==============================
echo

start molecule

title "Title"
charge -1

geometry units angstroms print xyz autosym
 I                     0.00000000     0.00000000     1.88716539
 Cl                    0.00000000     0.00000000    -3.03660307
 C                     0.00000000     0.00000000    -1.11283396
 H                     0.74342354     0.74342354    -0.83714093
 H                    -1.01553544     0.27211190    -0.83714093
 H                     0.27211190    -1.01553544    -0.83714093
end

basis
  * library def2-svpd
end

ecp
 I library "def2-ecp"
end

dft
xc b3lyp
mult 1
end

driver
default
maxiter 99
end

python
from nwgeom import *
geom = '''
    geometry noprint adjust
        zcoord
            bond  1 3   3.0 ci  constant
            bond  2 3   %f ccl  constant
        end
    end
'''
x0=3.000
y0=1.801
xmax=2.171
ymax=3.000
npts=11
ymin = y0 - (ymax-y0)/npts
results = scan_input(geom, \
[ymin],
[ymax],
npts, 'dft', task_optimize)
fp=open("sn1_ccl.dat","w")
for i in range(0,len(results)):
    fp.write(f'{results[i][0][0]} {results[i][1][0]} \n')
fp.close()
end

task python
================================================================================


                                         
                                         


             Northwest Computational Chemistry Package (NWChem) 7.2.2
             --------------------------------------------------------


                    Environmental Molecular Sciences Laboratory
                       Pacific Northwest National Laboratory
                                Richland, WA 99352

                              Copyright (c) 1994-2022
                       Pacific Northwest National Laboratory
                            Battelle Memorial Institute

             NWChem is an open-source computational chemistry package
                        distributed under the terms of the
                      Educational Community License (ECL) 2.0
             A copy of the license is included with this distribution
                              in the LICENSE.TXT file

                                  ACKNOWLEDGMENT
                                  --------------

            This software and its documentation were developed at the
            EMSL at Pacific Northwest National Laboratory, a multiprogram
            national laboratory, operated for the U.S. Department of Energy
            by Battelle under Contract Number DE-AC05-76RL01830. Support
            for this work was provided by the Department of Energy Office
            of Biological and Environmental Research, Office of Basic
            Energy Sciences, and the Office of Advanced Scientific Computing.


           Job information
           ---------------

    hostname        = iiserb-lab4
    program         = nwchem
    date            = Tue Jul  9 13:34:57 2024

    compiled        = Fri_Jun_07_08:00:10_2024
    source          = /home/conda/feedstock_root/build_artifacts/nwchem_1717738152402/work
    nwchem branch   = 7.2.2
    nwchem revision = 64ba0f0
    ga revision     = 5.8.0
    use scalapack   = T
    input           = LIIC_SN1_CH3Cl.nw
    prefix          = molecule.
    data base       = ./molecule.db
    status          = startup
    nproc           =        4
    time left       =     -1s



           Memory information
           ------------------

    heap     =   26214394 doubles =    200.0 Mbytes
    stack    =   26214399 doubles =    200.0 Mbytes
    global   =   52428800 doubles =    400.0 Mbytes (distinct from heap & stack)
    total    =  104857593 doubles =    800.0 Mbytes
    verify   = yes
    hardfail = no 


           Directory information
           ---------------------

  0 permanent = .
  0 scratch   = .




                                NWChem Input Module
                                -------------------


                                       Title
                                       -----

 Scaling coordinates for geometry "geometry" by  1.889725989
 (inverse scale =  0.529177249)

 C3V symmetry detected

          ------
          auto-z
          ------
  autoz: The atoms group into disjoint clusters
 cluster   1:    1
 cluster   2:    2    3    4    5    6
 Connecting clusters   1   2 via atoms    1    4 r = 2.92
  autoz: regenerating connections with new bonds
  no constraints, skipping    0.0000000000000000     
  no constraints, skipping    0.0000000000000000     


                             Geometry "geometry" -> ""
                             -------------------------

 Output coordinates in angstroms (scale by  1.889725989 to convert to a.u.)

  No.       Tag          Charge          X              Y              Z
 ---- ---------------- ---------- -------------- -------------- --------------
    1 I                   53.0000    -0.00000000    -0.00000000     1.39084783
    2 Cl                  17.0000     0.00000000     0.00000000    -3.53292063
    3 C                    6.0000     0.00000000     0.00000000    -1.60915152
    4 H                    1.0000     0.74342354     0.74342354    -1.33345849
    5 H                    1.0000    -1.01553544     0.27211190    -1.33345849
    6 H                    1.0000     0.27211190    -1.01553544    -1.33345849

      Atomic Mass 
      ----------- 

      I                126.900400
      Cl                34.968850
      C                 12.000000
      H                  1.007825


 Effective nuclear repulsion energy (a.u.)     230.5037123431

            Nuclear Dipole moment (a.u.) 
            ----------------------------
        X                 Y               Z
 ---------------- ---------------- ----------------
     0.0000000000     0.0000000000    -0.0000000000

      Symmetry information
      --------------------

 Group name             C3v       
 Group number             17
 Group order               6
 No. of unique centers     4

      Symmetry unique atoms

     1    2    3    4



                                Z-matrix (autoz)
                                -------- 

 Units are Angstrom for bonds and degrees for angles

      Type          Name      I     J     K     L     M      Value
      ----------- --------  ----- ----- ----- ----- ----- ----------
    1 Stretch                  1     4                       2.92014
    2 Stretch                  2     3                       1.92377
    3 Stretch                  3     4                       1.08691
    4 Stretch                  3     5                       1.08691
    5 Stretch                  3     6                       1.08691
    6 Bend                     1     4     3                83.59106
    7 Bend                     2     3     4               104.69357
    8 Bend                     2     3     5               104.69357
    9 Bend                     2     3     6               104.69357
   10 Bend                     4     3     5               113.79672
   11 Bend                     4     3     6               113.79672
   12 Bend                     5     3     6               113.79672
   13 Torsion                  1     4     3     2         180.00000
   14 Torsion                  1     4     3     5          66.28249
   15 Torsion                  1     4     3     6         -66.28249


            XYZ format geometry
            -------------------
     6
 geometry
 I                    -0.00000000    -0.00000000     1.39084783
 Cl                    0.00000000     0.00000000    -3.53292063
 C                     0.00000000     0.00000000    -1.60915152
 H                     0.74342354     0.74342354    -1.33345849
 H                    -1.01553544     0.27211190    -1.33345849
 H                     0.27211190    -1.01553544    -1.33345849

 ==============================================================================
                                internuclear distances
 ------------------------------------------------------------------------------
       center one      |      center two      | atomic units |  angstroms
 ------------------------------------------------------------------------------
    3 C                |   2 Cl               |     3.63540  |     1.92377
    4 H                |   3 C                |     2.05395  |     1.08691
    5 H                |   3 C                |     2.05395  |     1.08691
    6 H                |   3 C                |     2.05395  |     1.08691
 ------------------------------------------------------------------------------
                         number of included internuclear distances:          4
 ==============================================================================



 ==============================================================================
                                 internuclear angles
 ------------------------------------------------------------------------------
        center 1       |       center 2       |       center 3       |  degrees
 ------------------------------------------------------------------------------
    2 Cl               |   3 C                |   4 H                |   104.69
    2 Cl               |   3 C                |   5 H                |   104.69
    2 Cl               |   3 C                |   6 H                |   104.69
    4 H                |   3 C                |   5 H                |   113.80
    4 H                |   3 C                |   6 H                |   113.80
    5 H                |   3 C                |   6 H                |   113.80
 ------------------------------------------------------------------------------
                            number of included internuclear angles:          6
 ==============================================================================



  library name resolved from: environment
  library file name is: </home/iiserb/anaconda3/envs/chemstarx/share/nwchem/libraries/>
  


 Summary of "ao basis" -> "" (cartesian)
 ------------------------------------------------------------------------------
       Tag                 Description            Shells   Functions and Types
 ---------------- ------------------------------  ------  ---------------------
 *                         def2-svpd                  on all atoms 


  library name resolved from: environment
  library file name is: </home/iiserb/anaconda3/envs/chemstarx/share/nwchem/libraries/>
  
                 ECP       "ecp basis" -> "" (cartesian)
                -----
  I (Iodine) Replaces    28 electrons
  -----------------------------------
             Channel    R-exponent     Exponent     Coefficients
         ------------ ---------------------------------------------------------
  1 U L       Both         2.00       19.458609     -21.842040
  1 U L       Both         2.00       19.349260     -28.468191
  1 U L       Both         2.00        4.823767      -0.243713
  1 U L       Both         2.00        4.884315      -0.320804

  2 U-s       Both         2.00       40.015835      49.994293
  2 U-s       Both         2.00       17.429747     281.025317
  2 U-s       Both         2.00        9.005484      61.573326
  2 U-s       Both         2.00       19.458609      21.842040
  2 U-s       Both         2.00       19.349260      28.468191
  2 U-s       Both         2.00        4.823767       0.243713
  2 U-s       Both         2.00        4.884315       0.320804

  3 U-p       Both         2.00       15.355466      67.442841
  3 U-p       Both         2.00       14.971833     134.881137
  3 U-p       Both         2.00        8.960164      14.675051
  3 U-p       Both         2.00        8.259096      29.375666
  3 U-p       Both         2.00       19.458609      21.842040
  3 U-p       Both         2.00       19.349260      28.468191
  3 U-p       Both         2.00        4.823767       0.243713
  3 U-p       Both         2.00        4.884315       0.320804

  4 U-d       Both         2.00       15.068908      35.439529
  4 U-d       Both         2.00       14.555322      53.176057
  4 U-d       Both         2.00        6.718647       9.067195
  4 U-d       Both         2.00        6.456393      13.206937
  4 U-d       Both         2.00        1.191779       0.089335
  4 U-d       Both         2.00        1.291157       0.052380
  4 U-d       Both         2.00       19.458609      21.842040
  4 U-d       Both         2.00       19.349260      28.468191
  4 U-d       Both         2.00        4.823767       0.243713
  4 U-d       Both         2.00        4.884315       0.320804


                               NWChem Python program
                               ---------------------

from nwgeom import *
geom = '''
    geometry noprint adjust
        zcoord
            bond  1 3   3.0 ci  constant
            bond  2 3   %f ccl  constant
        end
    end
'''
x0=3.000
y0=1.801
xmax=2.171
ymax=3.000
npts=11
ymin = y0 - (ymax-y0)/npts
results = scan_input(geom, \
[ymin],
[ymax],
npts, 'dft', task_optimize)
fp=open("sn1_ccl.dat","w")
for i in range(0,len(results)):
    fp.write(f'{results[i][0][0]} {results[i][1][0]} \n')
fp.close()

 
 Scanning NWChem input 
 ---------------------
 

    geometry noprint adjust
        zcoord
            bond  1 3   3.0 ci  constant
            bond  2 3   %f ccl  constant
        end
    end

 
 Nstep  11
 Start  [1.692]
 End    [3.0]
 
 
 Scanning NWChem input - step 1 of 11 
 

    geometry noprint adjust
        zcoord
            bond  1 3   3.0 ci  constant
            bond  2 3   1.801000 ccl  constant
        end
    end

 


                                NWChem Input Module
                                -------------------


 C3V symmetry detected


                           NWChem Geometry Optimization
                           ----------------------------




                                       Title


 maximum gradient threshold         (gmax) =   0.000450
 rms gradient threshold             (grms) =   0.000300
 maximum cartesian step threshold   (xmax) =   0.001800
 rms cartesian step threshold       (xrms) =   0.001200
 fixed trust radius                (trust) =   0.300000
 maximum step size to saddle      (sadstp) =   0.100000
 energy precision                  (eprec) =   5.0D-06
 maximum number of steps          (nptopt) =   99
 initial hessian option           (inhess) =    0
 line search option               (linopt) =    1
 hessian update option            (modupd) =    1
 saddle point option              (modsad) =    0
 initial eigen-mode to follow     (moddir) =    0
 initial variable to follow       (vardir) =    0
 follow first negative mode     (firstneg) =    T
 apply conjugacy                    (opcg) =    F
 source of zmatrix                         =   autoz   


          -------------------
          Energy Minimization
          -------------------


 Names of Z-matrix variables 
    1 ci           2 ccl          3              4              5         
    6              7              8              9             10         
   11             12             13             14         

 Variables with the same non-blank name are constrained to be equal


 Number of frozen variables =    2
           Frozen variables =    1    2

 Using old Hessian from previous optimization

          --------
          Step   0
          --------


                         Geometry "geometry" -> "geometry"
                         ---------------------------------

 Output coordinates in angstroms (scale by  1.889725989 to convert to a.u.)

  No.       Tag          Charge          X              Y              Z
 ---- ---------------- ---------- -------------- -------------- --------------
    1 I                   53.0000    -0.00000000    -0.00000000     1.37038686
    2 Cl                  17.0000     0.00000000    -0.00000000    -3.43061314
    3 C                    6.0000     0.00000000     0.00000000    -1.62961314
    4 H                    1.0000     0.74342354     0.74342354    -1.35392011
    5 H                    1.0000    -1.01553544     0.27211190    -1.35392011
    6 H                    1.0000     0.27211190    -1.01553544    -1.35392011

      Atomic Mass 
      ----------- 

      I                126.900400
      Cl                34.968850
      C                 12.000000
      H                  1.007825


 Effective nuclear repulsion energy (a.u.)     235.4164226657

            Nuclear Dipole moment (a.u.) 
            ----------------------------
        X                 Y               Z
 ---------------- ---------------- ----------------
    -0.0000000000    -0.0000000000     0.8893821762

      Symmetry information
      --------------------

 Group name             C3v       
 Group number             17
 Group order               6
 No. of unique centers     4

      Symmetry unique atoms

     1    2    3    4


                                 NWChem DFT Module
                                 -----------------


                                       Title


                      Basis "ao basis" -> "ao basis" (cartesian)
                      -----
  I (Iodine)
  ----------
            Exponent  Coefficients 
       -------------- ---------------------------------------------------------
  1 S  4.45904892E+02  0.002004
  1 S  2.33368424E+01 -0.149894
  1 S  1.95834461E+01  0.364365
  1 S  8.51120892E+00 -0.755381
  1 S  2.19961619E+00  0.828164
  1 S  1.06689705E+00  0.421610

  2 S  1.17205476E+01 -0.016160
  2 S  1.76259864E+00  0.352715

  3 S  2.86974763E-01  1.000000

  4 S  1.12276096E-01  1.000000

  5 S  4.51236355E-02  1.000000

  6 P  2.04990273E+01  0.077159
  6 P  1.05587546E+01 -0.383704
  6 P  1.50158955E+00  0.835542
  6 P  6.45971731E-01  0.167873

  7 P  3.02886568E+00  1.000000

  8 P  3.45065918E-01  1.000000

  9 P  1.11345138E-01  1.000000

 10 P  2.97955072E-02  1.000000

 11 D  5.12353549E+01  0.004035
 11 D  1.56162395E+01 -0.005077
 11 D  4.52660021E+00  0.291511
 11 D  2.05298088E+00  0.511458
 11 D  8.76402816E-01  0.312320

 12 D  3.09000000E-01  1.000000

 13 D  7.79872552E-02  1.000000

  Cl (Chlorine)
  -------------
            Exponent  Coefficients 
       -------------- ---------------------------------------------------------
  1 S  1.04498276E+04  0.001971
  1 S  1.57173652E+03  0.014755
  1 S  3.57120655E+02  0.066679
  1 S  1.00251859E+02  0.172289
  1 S  3.08127276E+01  0.158838

  2 S  5.19237894E+01 -0.100093
  2 S  5.70457610E+00  0.608418
  2 S  2.35083768E+00  0.543522

  3 S  4.46051247E-01  1.000000

  4 S  1.68488562E-01  1.000000

  5 S  5.53442294E-02  1.000000

  6 P  3.07667906E+02 -0.008780
  6 P  7.21020155E+01 -0.063563
  6 P  2.25326803E+01 -0.240164
  6 P  7.89917654E+00 -0.477989
  6 P  2.87672683E+00 -0.385159

  7 P  7.74593640E-01  1.000000

  8 P  2.10376997E-01  1.000000

  9 P  5.00462711E-02  1.000000

 10 D  6.50000000E-01  1.000000

 11 D  1.22848034E-01  1.000000

  C (Carbon)
  ----------
            Exponent  Coefficients 
       -------------- ---------------------------------------------------------
  1 S  1.23840169E+03  0.005457
  1 S  1.86290050E+02  0.040638
  1 S  4.22511763E+01  0.180256
  1 S  1.16765579E+01  0.463151
  1 S  3.59305065E+00  0.440872

  2 S  4.02451474E-01  1.000000

  3 S  1.30901827E-01  1.000000

  4 S  6.70535403E-02  1.000000

  5 P  9.46809706E+00  0.038388
  5 P  2.01035451E+00  0.211170
  5 P  5.47710047E-01  0.513282

  6 P  1.52686138E-01  1.000000

  7 D  8.00000000E-01  1.000000

  8 D  1.17131851E-01  1.000000

  H (Hydrogen)
  ------------
            Exponent  Coefficients 
       -------------- ---------------------------------------------------------
  1 S  1.30107010E+01  0.019682
  1 S  1.96225720E+00  0.137965
  1 S  4.44537960E-01  0.478319

  2 S  1.21949620E-01  1.000000

  3 P  8.00000000E-01  1.000000

  4 P  1.17040991E-01  1.000000



 Summary of "ao basis" -> "ao basis" (cartesian)
 ------------------------------------------------------------------------------
       Tag                 Description            Shells   Functions and Types
 ---------------- ------------------------------  ------  ---------------------
 I                         def2-svpd                13       38   5s5p3d
 Cl                        def2-svpd                11       29   5s4p2d
 C                         def2-svpd                 8       22   4s2p2d
 H                         def2-svpd                 4        8   2s2p




 Summary of "ao basis" -> "ao basis" (cartesian)
 ------------------------------------------------------------------------------
       Tag                 Description            Shells   Functions and Types
 ---------------- ------------------------------  ------  ---------------------
 I                         def2-svpd                13       38   5s5p3d
 Cl                        def2-svpd                11       29   5s4p2d
 C                         def2-svpd                 8       22   4s2p2d
 H                         def2-svpd                 4        8   2s2p


      Symmetry analysis of basis
      --------------------------

        a1         45
        a2          2
        e          66

  Caching 1-el integrals 
  Rotation of axis 

            General Information
            -------------------
          SCF calculation type: DFT
          Wavefunction type:  closed shell.
          No. of atoms     :     6
          No. of electrons :    52
           Alpha electrons :    26
            Beta electrons :    26
          Charge           :    -1
          Spin multiplicity:     1
          Use of symmetry is: on ; symmetry adaption is: on 
          Maximum number of iterations:  50
          AO basis - number of functions:   113
                     number of shells:    44
          Convergence on energy requested:  1.00D-06
          Convergence on density requested:  1.00D-05
          Convergence on gradient requested:  5.00D-04

              XC Information
              --------------
                         B3LYP Method XC Potential
                     Hartree-Fock (Exact) Exchange  0.200          
                        Slater Exchange Functional  0.800 local    
                    Becke 1988 Exchange Functional  0.720 non-local
              Lee-Yang-Parr Correlation Functional  0.810          
                  VWN I RPA Correlation Functional  0.190 local    

             Grid Information
             ----------------
          Grid used for XC integration:  medium    
          Radial quadrature: Mura-Knowles        
          Angular quadrature: Lebedev. 
          Tag              B.-S. Rad. Rad. Pts. Rad. Cut. Ang. Pts.
          ---              ---------- --------- --------- ---------
          I                   1.40      123          15.0       590
          Cl                  1.00       88          16.0       590
          C                   0.70       49          13.0       434
          H                   0.35       45          12.0       434
          Grid pruning is: on 
          Number of quadrature shells:   305
          Spatial weights used:  Erf1

          Convergence Information
          -----------------------
          Convergence aids based upon iterative change in 
          total energy or number of iterations. 
          Levelshifting, if invoked, occurs when the 
          HOMO/LUMO gap drops below (HL_TOL):  1.00D-02
          DIIS, if invoked, will attempt to extrapolate 
          using up to (NFOCK): 10 stored Fock matrices.

                    Damping( 0%)  Levelshifting(0.5)       DIIS
                  --------------- ------------------- ---------------
          dE  on:    start            ASAP                start   
          dE off:    2 iters         50 iters            50 iters 


      Screening Tolerance Information
      -------------------------------
          Density screening/tol_rho:  1.00D-10
          AO Gaussian exp screening on grid/accAOfunc:  14
          CD Gaussian exp screening on grid/accCDfunc:  20
          XC Gaussian exp screening on grid/accXCfunc:  20
          Schwarz screening/accCoul:  1.00D-08


      Superposition of Atomic Density Guess
      -------------------------------------

 Sum of atomic energies:        -845.57913955

 Renormalizing density from      51.00 to     52

      Non-variational initial energy
      ------------------------------

 Total energy =    -803.191230
 1-e energy   =   -1507.952375
 2-e energy   =     566.666649
 HOMO         =      -0.055601
 LUMO         =       0.179077


      Symmetry analysis of molecular orbitals - initial
      -------------------------------------------------

  Numbering of irreducible representations: 

     1 a1          2 a2          3 e       

  Orbital symmetries:

     1 a1          2 a1          3 a1          4 a1          5 e       
     6 e           7 a1          8 e           9 e          10 a1      
    11 e          12 e          13 a1         14 e          15 e       
    16 a1         17 a1         18 a1         19 e          20 e       
    21 a1         22 e          23 e          24 e          25 e       
    26 a1         27 a1         28 a1         29 a1         30 e       
    31 e          32 a1         33 e          34 e          35 a1      
    36 e       

  WARNING: movecs_in_org=atomic not equal to movecs_in=./molecule.movecs
   Time after variat. SCF:      0.4
   Time prior to 1st pass:      0.4

 Grid_pts file          = ./molecule.gridpts.0
 Record size in doubles =  12289        No. of grid_pts per rec  =   3070
 Max. records in memory =     18        Max. recs in file   = 253312716


           Memory utilization after 1st SCF pass: 
           Heap Space remaining (MW):        0.00                 452
          Stack Space remaining (MW):       26.21            26213652

   convergence    iter        energy       DeltaE   RMS-Dens  Diis-err    time
 ---------------- ----- ----------------- --------- --------- ---------  ------
 d= 0,ls=0.0,diis     1   -797.7459302220 -9.36D+02  2.47D-02  1.12D+00     1.0
 d= 0,ls=0.0,diis     2   -797.7518443606 -5.91D-03  1.40D-02  8.75D-01     1.5
 d= 0,ls=0.0,diis     3   -797.8578862171 -1.06D-01  2.70D-03  4.31D-02     2.1
 d= 0,ls=0.0,diis     4   -797.8627676737 -4.88D-03  9.36D-04  6.67D-03     2.7
 d= 0,ls=0.0,diis     5   -797.8636195037 -8.52D-04  1.49D-04  8.35D-05     3.2
  Resetting Diis
 d= 0,ls=0.0,diis     6   -797.8636290651 -9.56D-06  4.41D-05  8.89D-06     3.8
 d= 0,ls=0.0,diis     7   -797.8636304457 -1.38D-06  1.48D-05  2.64D-07     4.4
 d= 0,ls=0.0,diis     8   -797.8636304404  5.30D-09  6.48D-06  3.67D-07     5.0


         Total DFT energy =     -797.863630440414
      One electron energy =    -1491.286672939950
           Coulomb energy =      612.622476743414
    Exchange-Corr. energy =      -57.293929409113
 Nuclear repulsion energy =      138.094495165235

 Numeric. integr. density =       51.999988195303

     Total iterative time =      4.6s



                  Occupations of the irreducible representations
                  ----------------------------------------------

                     irrep           alpha         beta
                     --------     --------     --------
                     a1               12.0         12.0
                     a2                0.0          0.0
                     e                14.0         14.0


                       DFT Final Molecular Orbital Analysis
                       ------------------------------------

 Vector    1  Occ=2.000000D+00  E=-1.013956D+02  Symmetry=a1
              MO Center= -2.0D-21, -1.0D-21, -3.4D+00, r^2= 3.2D-03
   Bfn.  Coefficient  Atom+Function         Bfn.  Coefficient  Atom+Function  
  ----- ------------  ---------------      ----- ------------  ---------------
    39      0.993385  2 Cl s                 40      0.030533  2 Cl s          
    41     -0.025104  2 Cl s          

 Vector    2  Occ=2.000000D+00  E=-1.010274D+01  Symmetry=a1
              MO Center= -4.7D-18,  3.8D-18, -1.6D+00, r^2= 2.8D-02
   Bfn.  Coefficient  Atom+Function         Bfn.  Coefficient  Atom+Function  
  ----- ------------  ---------------      ----- ------------  ---------------
    68      0.987324  3 C  s                 71     -0.123022  3 C  s          
    69      0.065452  3 C  s                 84      0.036613  3 C  dxx        
    87      0.036613  3 C  dyy               89      0.034567  3 C  dzz        
    70      0.029605  3 C  s          

 Vector    3  Occ=2.000000D+00  E=-9.327538D+00  Symmetry=a1
              MO Center= -6.9D-21, -4.7D-21, -3.4D+00, r^2= 6.6D-02
   Bfn.  Coefficient  Atom+Function         Bfn.  Coefficient  Atom+Function  
  ----- ------------  ---------------      ----- ------------  ---------------
    40      1.013569  2 Cl s                 39     -0.311072  2 Cl s          
    41      0.071866  2 Cl s          

 Vector    4  Occ=2.000000D+00  E=-7.096549D+00  Symmetry=a1
              MO Center=  1.2D-19,  1.3D-19, -3.4D+00, r^2= 5.8D-02
   Bfn.  Coefficient  Atom+Function         Bfn.  Coefficient  Atom+Function  
  ----- ------------  ---------------      ----- ------------  ---------------
    46      0.980254  2 Cl pz                70     -0.072957  3 C  s          
    49     -0.054503  2 Cl pz                42      0.031162  2 Cl s          
    52      0.026446  2 Cl pz         

 Vector    5  Occ=2.000000D+00  E=-7.088402D+00  Symmetry=e
              MO Center= -2.1D-06, -3.9D-06, -3.4D+00, r^2= 5.8D-02
   Bfn.  Coefficient  Atom+Function         Bfn.  Coefficient  Atom+Function  
  ----- ------------  ---------------      ----- ------------  ---------------
    44      0.788507  2 Cl px                45      0.583523  2 Cl py         
    47     -0.041367  2 Cl px                48     -0.030613  2 Cl py         

 Vector    6  Occ=2.000000D+00  E=-7.088402D+00  Symmetry=e
              MO Center=  2.1D-06,  3.9D-06, -3.4D+00, r^2= 5.8D-02
   Bfn.  Coefficient  Atom+Function         Bfn.  Coefficient  Atom+Function  
  ----- ------------  ---------------      ----- ------------  ---------------
    45      0.788507  2 Cl py                44     -0.583523  2 Cl px         
    48     -0.041367  2 Cl py                47      0.030613  2 Cl px         

 Vector    7  Occ=2.000000D+00  E=-6.595869D+00  Symmetry=a1
              MO Center=  1.2D-16, -4.2D-17,  1.4D+00, r^2= 1.8D-01
   Bfn.  Coefficient  Atom+Function         Bfn.  Coefficient  Atom+Function  
  ----- ------------  ---------------      ----- ------------  ---------------
     1      0.934737  1 I  s                  2      0.082874  1 I  s          
     3      0.034062  1 I  s          

 Vector    8  Occ=2.000000D+00  E=-4.612951D+00  Symmetry=a1
              MO Center=  1.1D-16,  1.5D-16,  1.4D+00, r^2= 2.0D-01
   Bfn.  Coefficient  Atom+Function         Bfn.  Coefficient  Atom+Function  
  ----- ------------  ---------------      ----- ------------  ---------------
     8      0.566536  1 I  pz                11      0.537126  1 I  pz         

 Vector    9  Occ=2.000000D+00  E=-4.612857D+00  Symmetry=e
              MO Center= -4.0D-07, -1.3D-07,  1.4D+00, r^2= 2.0D-01
   Bfn.  Coefficient  Atom+Function         Bfn.  Coefficient  Atom+Function  
  ----- ------------  ---------------      ----- ------------  ---------------
     6      0.481993  1 I  px                 9      0.456963  1 I  px         
     7     -0.297821  1 I  py                10     -0.282355  1 I  py         

 Vector   10  Occ=2.000000D+00  E=-4.612857D+00  Symmetry=e
              MO Center=  4.0D-07,  1.3D-07,  1.4D+00, r^2= 2.0D-01
   Bfn.  Coefficient  Atom+Function         Bfn.  Coefficient  Atom+Function  
  ----- ------------  ---------------      ----- ------------  ---------------
     7      0.481993  1 I  py                10      0.456963  1 I  py         
     6      0.297821  1 I  px                 9      0.282355  1 I  px         

 Vector   11  Occ=2.000000D+00  E=-1.661998D+00  Symmetry=a1
              MO Center= -6.9D-16,  1.5D-15,  1.4D+00, r^2= 2.8D-01
   Bfn.  Coefficient  Atom+Function         Bfn.  Coefficient  Atom+Function  
  ----- ------------  ---------------      ----- ------------  ---------------
    26      0.979456  1 I  dzz               21     -0.490110  1 I  dxx        
    24     -0.490110  1 I  dyy               32      0.053670  1 I  dzz        
    27     -0.028957  1 I  dxx               30     -0.028957  1 I  dyy        

 Vector   12  Occ=2.000000D+00  E=-1.661897D+00  Symmetry=e
              MO Center=  1.2D-06,  5.1D-07,  1.4D+00, r^2= 2.8D-01
   Bfn.  Coefficient  Atom+Function         Bfn.  Coefficient  Atom+Function  
  ----- ------------  ---------------      ----- ------------  ---------------
    25      1.401500  1 I  dyz               23      0.957277  1 I  dxz        
    31      0.076343  1 I  dyz               29      0.052145  1 I  dxz        
    22     -0.030553  1 I  dxy        

 Vector   13  Occ=2.000000D+00  E=-1.661897D+00  Symmetry=e
              MO Center= -1.2D-06, -5.1D-07,  1.4D+00, r^2= 2.8D-01
   Bfn.  Coefficient  Atom+Function         Bfn.  Coefficient  Atom+Function  
  ----- ------------  ---------------      ----- ------------  ---------------
    23      1.401500  1 I  dxz               25     -0.957277  1 I  dyz        
    29      0.076343  1 I  dxz               31     -0.052145  1 I  dyz        

 Vector   14  Occ=2.000000D+00  E=-1.661748D+00  Symmetry=e
              MO Center= -3.0D-08, -3.8D-07,  1.4D+00, r^2= 2.8D-01
   Bfn.  Coefficient  Atom+Function         Bfn.  Coefficient  Atom+Function  
  ----- ------------  ---------------      ----- ------------  ---------------
    21      0.796279  1 I  dxx               24     -0.796279  1 I  dyy        
    22      0.587558  1 I  dxy               27      0.042926  1 I  dxx        
    30     -0.042926  1 I  dyy               28      0.031674  1 I  dxy        
    25      0.028266  1 I  dyz        

 Vector   15  Occ=2.000000D+00  E=-1.661748D+00  Symmetry=e
              MO Center=  3.0D-08,  3.8D-07,  1.4D+00, r^2= 2.8D-01
   Bfn.  Coefficient  Atom+Function         Bfn.  Coefficient  Atom+Function  
  ----- ------------  ---------------      ----- ------------  ---------------
    22      1.592558  1 I  dxy               21     -0.293779  1 I  dxx        
    24      0.293779  1 I  dyy               28      0.085851  1 I  dxy        
    23      0.028266  1 I  dxz        

 Vector   16  Occ=2.000000D+00  E=-7.169023D-01  Symmetry=a1
              MO Center=  1.9D-16, -3.4D-16, -2.9D+00, r^2= 1.1D+00
   Bfn.  Coefficient  Atom+Function         Bfn.  Coefficient  Atom+Function  
  ----- ------------  ---------------      ----- ------------  ---------------
    41      0.621160  2 Cl s                 40     -0.455722  2 Cl s          
    42      0.270635  2 Cl s                 69      0.249584  3 C  s          
    71     -0.154814  3 C  s                 70      0.135776  3 C  s          
    68     -0.123284  3 C  s                 74     -0.090177  3 C  pz         
    52      0.077334  2 Cl pz                39      0.073758  2 Cl s          

 Vector   17  Occ=2.000000D+00  E=-5.309508D-01  Symmetry=a1
              MO Center=  1.4D-15, -4.5D-16, -2.0D+00, r^2= 2.2D+00
   Bfn.  Coefficient  Atom+Function         Bfn.  Coefficient  Atom+Function  
  ----- ------------  ---------------      ----- ------------  ---------------
    70      0.713501  3 C  s                 71     -0.480395  3 C  s          
    69      0.443455  3 C  s                 41     -0.400387  2 Cl s          
    40      0.277004  2 Cl s                 42     -0.228765  2 Cl s          
    68     -0.207596  3 C  s                 91     -0.182740  4 H  s          
    99     -0.182740  5 H  s                107     -0.182740  6 H  s          

 Vector   18  Occ=2.000000D+00  E=-4.422861D-01  Symmetry=a1
              MO Center=  6.1D-18, -3.7D-18,  1.2D+00, r^2= 1.8D+00
   Bfn.  Coefficient  Atom+Function         Bfn.  Coefficient  Atom+Function  
  ----- ------------  ---------------      ----- ------------  ---------------
     3      0.842235  1 I  s                  1     -0.426309  1 I  s          
     4      0.386967  1 I  s                  2     -0.366076  1 I  s          
    69     -0.088330  3 C  s                 41      0.071943  2 Cl s          
    71      0.057546  3 C  s                  5      0.055224  1 I  s          
    40     -0.048822  2 Cl s                 52     -0.046000  2 Cl pz         

 Vector   19  Occ=2.000000D+00  E=-3.126413D-01  Symmetry=e
              MO Center= -1.9D-01,  6.4D-02, -1.8D+00, r^2= 1.5D+00
   Bfn.  Coefficient  Atom+Function         Bfn.  Coefficient  Atom+Function  
  ----- ------------  ---------------      ----- ------------  ---------------
    72      0.420879  3 C  px                98     -0.332901  5 H  s          
    50      0.187096  2 Cl px                90      0.175688  4 H  s          
   106      0.157214  6 H  s                 47      0.152773  2 Cl px         
    75      0.152429  3 C  px                73     -0.098444  3 C  py         
    44      0.090469  2 Cl px                99     -0.078348  5 H  s          

 Vector   20  Occ=2.000000D+00  E=-3.126413D-01  Symmetry=e
              MO Center=  1.9D-01, -6.4D-02, -1.8D+00, r^2= 1.5D+00
   Bfn.  Coefficient  Atom+Function         Bfn.  Coefficient  Atom+Function  
  ----- ------------  ---------------      ----- ------------  ---------------
    73      0.420879  3 C  py               106     -0.293634  6 H  s          
    90      0.282968  4 H  s                 51      0.187096  2 Cl py         
    48      0.152773  2 Cl py                76      0.152429  3 C  py         
    72      0.098444  3 C  px                45      0.090469  2 Cl py         
   107     -0.069106  6 H  s                 91      0.066596  4 H  s          

 Vector   21  Occ=2.000000D+00  E=-2.718276D-01  Symmetry=a1
              MO Center= -2.1D-15,  5.5D-16, -2.7D+00, r^2= 2.5D+00
   Bfn.  Coefficient  Atom+Function         Bfn.  Coefficient  Atom+Function  
  ----- ------------  ---------------      ----- ------------  ---------------
    70      0.925314  3 C  s                 52     -0.487810  2 Cl pz         
    49     -0.379405  2 Cl pz                74      0.352868  3 C  pz         
    91     -0.265775  4 H  s                 99     -0.265775  5 H  s          
   107     -0.265775  6 H  s                 46     -0.220817  2 Cl pz         
    71     -0.211997  3 C  s                 89      0.179138  3 C  dzz        

 Vector   22  Occ=2.000000D+00  E=-1.698955D-01  Symmetry=e
              MO Center=  3.3D-02, -2.0D-02, -3.2D+00, r^2= 1.8D+00
   Bfn.  Coefficient  Atom+Function         Bfn.  Coefficient  Atom+Function  
  ----- ------------  ---------------      ----- ------------  ---------------
    51      0.572328  2 Cl py                48      0.454067  2 Cl py         
    45      0.259436  2 Cl py                73     -0.175438  3 C  py         
   106      0.165221  6 H  s                 90     -0.139371  4 H  s          
   107      0.128426  6 H  s                 91     -0.108332  4 H  s          
    54      0.106434  2 Cl py                50      0.066601  2 Cl px         

 Vector   23  Occ=2.000000D+00  E=-1.698955D-01  Symmetry=e
              MO Center= -3.3D-02,  2.0D-02, -3.2D+00, r^2= 1.8D+00
   Bfn.  Coefficient  Atom+Function         Bfn.  Coefficient  Atom+Function  
  ----- ------------  ---------------      ----- ------------  ---------------
    50      0.572328  2 Cl px                47      0.454067  2 Cl px         
    44      0.259436  2 Cl px                72     -0.175438  3 C  px         
    98      0.175856  5 H  s                 99      0.136693  5 H  s          
    90     -0.110315  4 H  s                 53      0.106434  2 Cl px         
    91     -0.085748  4 H  s                 51     -0.066601  2 Cl py         

 Vector   24  Occ=2.000000D+00  E=-5.064591D-02  Symmetry=e
              MO Center= -1.1D-04, -7.8D-06,  1.3D+00, r^2= 2.5D+00
   Bfn.  Coefficient  Atom+Function         Bfn.  Coefficient  Atom+Function  
  ----- ------------  ---------------      ----- ------------  ---------------
    12      0.512072  1 I  px                15      0.473392  1 I  px         
    13     -0.233659  1 I  py                16     -0.216009  1 I  py         
     9     -0.212410  1 I  px                 6     -0.172144  1 I  px         
    18      0.121128  1 I  px                10      0.096923  1 I  py         
     7      0.078549  1 I  py                19     -0.055271  1 I  py         

 Vector   25  Occ=2.000000D+00  E=-5.064591D-02  Symmetry=e
              MO Center=  1.1D-04,  7.8D-06,  1.3D+00, r^2= 2.5D+00
   Bfn.  Coefficient  Atom+Function         Bfn.  Coefficient  Atom+Function  
  ----- ------------  ---------------      ----- ------------  ---------------
    13      0.512072  1 I  py                16      0.473392  1 I  py         
    12      0.233659  1 I  px                15      0.216009  1 I  px         
    10     -0.212410  1 I  py                 7     -0.172144  1 I  py         
    19      0.121128  1 I  py                 9     -0.096923  1 I  px         
     6     -0.078549  1 I  px                18      0.055271  1 I  px         

 Vector   26  Occ=2.000000D+00  E=-4.747495D-02  Symmetry=a1
              MO Center=  9.9D-18, -1.4D-17,  1.2D+00, r^2= 3.2D+00
   Bfn.  Coefficient  Atom+Function         Bfn.  Coefficient  Atom+Function  
  ----- ------------  ---------------      ----- ------------  ---------------
    14      0.568545  1 I  pz                17      0.504568  1 I  pz         
    11     -0.234206  1 I  pz                 8     -0.189864  1 I  pz         
    70      0.154963  3 C  s                 52     -0.145597  2 Cl pz         
    43      0.134968  2 Cl s                  5      0.122887  1 I  s          
    71     -0.119009  3 C  s                 69      0.115500  3 C  s          

 Vector   27  Occ=0.000000D+00  E= 1.202775D-01  Symmetry=a1
              MO Center= -4.4D-14,  1.1D-15, -2.9D+00, r^2= 1.1D+01
   Bfn.  Coefficient  Atom+Function         Bfn.  Coefficient  Atom+Function  
  ----- ------------  ---------------      ----- ------------  ---------------
     5      3.726625  1 I  s                 43      2.927656  2 Cl s          
    71     -1.856352  3 C  s                  4     -1.584418  1 I  s          
    42     -1.096400  2 Cl s                 70      0.944258  3 C  s          
    33     -0.861294  1 I  dxx               36     -0.861294  1 I  dyy        
    38     -0.733256  1 I  dzz               67     -0.661591  2 Cl dzz        

 Vector   28  Occ=0.000000D+00  E= 1.309507D-01  Symmetry=a1
              MO Center=  4.7D-17,  3.0D-17, -1.4D+00, r^2= 1.8D+01
   Bfn.  Coefficient  Atom+Function         Bfn.  Coefficient  Atom+Function  
  ----- ------------  ---------------      ----- ------------  ---------------
     5      5.595679  1 I  s                  4     -2.440455  1 I  s          
    71     -2.313314  3 C  s                 33     -1.316058  1 I  dxx        
    36     -1.316058  1 I  dyy               38     -1.284554  1 I  dzz        
    55      1.238812  2 Cl pz                42      0.516895  2 Cl s          
    43      0.491267  2 Cl s                  3     -0.307314  1 I  s          

 Vector   29  Occ=0.000000D+00  E= 1.521638D-01  Symmetry=a1
              MO Center=  8.3D-16,  5.1D-16,  1.5D+00, r^2= 2.2D+01
   Bfn.  Coefficient  Atom+Function         Bfn.  Coefficient  Atom+Function  
  ----- ------------  ---------------      ----- ------------  ---------------
    71      6.937257  3 C  s                 70     -3.470117  3 C  s          
     5      2.667322  1 I  s                 43     -2.270743  2 Cl s          
    55     -1.536194  2 Cl pz                 4     -1.504560  1 I  s          
    20      1.391746  1 I  pz                38     -1.268671  1 I  dzz        
    84     -0.893058  3 C  dxx               87     -0.893058  3 C  dyy        

 Vector   30  Occ=0.000000D+00  E= 1.651779D-01  Symmetry=e
              MO Center=  1.3D-01, -3.5D-02, -1.2D-01, r^2= 1.7D+01
   Bfn.  Coefficient  Atom+Function         Bfn.  Coefficient  Atom+Function  
  ----- ------------  ---------------      ----- ------------  ---------------
    19      0.951217  1 I  py                54      0.599747  2 Cl py         
    88      0.534371  3 C  dyz               91     -0.528142  4 H  s          
   107      0.529461  6 H  s                 16     -0.458926  1 I  py         
    18      0.252676  1 I  px                95      0.203639  4 H  px         
   112      0.190778  6 H  py                66      0.171909  2 Cl dyz        

 Vector   31  Occ=0.000000D+00  E= 1.651779D-01  Symmetry=e
              MO Center= -1.3D-01,  3.5D-02, -1.2D-01, r^2= 1.7D+01
   Bfn.  Coefficient  Atom+Function         Bfn.  Coefficient  Atom+Function  
  ----- ------------  ---------------      ----- ------------  ---------------
    18      0.951217  1 I  px                99      0.610607  5 H  s          
    53      0.599747  2 Cl px                86      0.534371  3 C  dxz        
    15     -0.458926  1 I  px                91     -0.306446  4 H  s          
   107     -0.304161  6 H  s                 19     -0.252676  1 I  py         
   103      0.241238  5 H  px                96      0.176279  4 H  py         

 Vector   32  Occ=0.000000D+00  E= 1.870075D-01  Symmetry=a1
              MO Center= -1.8D-16, -4.8D-16, -1.2D+00, r^2= 1.3D+01
   Bfn.  Coefficient  Atom+Function         Bfn.  Coefficient  Atom+Function  
  ----- ------------  ---------------      ----- ------------  ---------------
     5      5.420813  1 I  s                 71     -4.068278  3 C  s          
     4     -2.361096  1 I  s                 43     -1.484177  2 Cl s          
    20     -1.235433  1 I  pz                33     -1.139228  1 I  dxx        
    36     -1.139228  1 I  dyy               70      1.123328  3 C  s          
    38     -1.051481  1 I  dzz               42      0.694061  2 Cl s          

 Vector   33  Occ=0.000000D+00  E= 1.913880D-01  Symmetry=e
              MO Center= -6.3D-02, -1.9D-02, -1.6D+00, r^2= 1.8D+01
   Bfn.  Coefficient  Atom+Function         Bfn.  Coefficient  Atom+Function  
  ----- ------------  ---------------      ----- ------------  ---------------
    99      1.621062  5 H  s                107     -1.210936  6 H  s          
    53      1.013423  2 Cl px                18     -0.712228  1 I  px         
    54     -0.606974  2 Cl py               103      0.594738  5 H  px         
    86      0.524513  3 C  dxz               75      0.477800  3 C  px         
   112     -0.429426  6 H  py                19      0.426578  1 I  py         

 Vector   34  Occ=0.000000D+00  E= 1.913880D-01  Symmetry=e
              MO Center=  6.3D-02,  1.9D-02, -1.6D+00, r^2= 1.8D+01
   Bfn.  Coefficient  Atom+Function         Bfn.  Coefficient  Atom+Function  
  ----- ------------  ---------------      ----- ------------  ---------------
    91      1.635055  4 H  s                107     -1.172707  6 H  s          
    54     -1.013423  2 Cl py                19      0.712228  1 I  py         
    53     -0.606974  2 Cl px                88     -0.524513  3 C  dyz        
    76     -0.477800  3 C  py                96     -0.465366  4 H  py         
    99     -0.462348  5 H  s                112     -0.457973  6 H  py         

 Vector   35  Occ=0.000000D+00  E= 2.212116D-01  Symmetry=a1
              MO Center=  2.9D-14, -2.1D-14, -2.0D+00, r^2= 1.5D+01
   Bfn.  Coefficient  Atom+Function         Bfn.  Coefficient  Atom+Function  
  ----- ------------  ---------------      ----- ------------  ---------------
     5      3.108249  1 I  s                 70      2.905948  3 C  s          
    71     -1.819813  3 C  s                 55     -1.788679  2 Cl pz         
     4     -1.690092  1 I  s                 43     -1.414445  2 Cl s          
    20     -1.161975  1 I  pz                89      0.923969  3 C  dzz        
    84      0.640357  3 C  dxx               87      0.640357  3 C  dyy        

 Vector   36  Occ=0.000000D+00  E= 2.389908D-01  Symmetry=e
              MO Center= -1.3D-02, -3.1D-02, -1.2D+00, r^2= 7.5D+00
   Bfn.  Coefficient  Atom+Function         Bfn.  Coefficient  Atom+Function  
  ----- ------------  ---------------      ----- ------------  ---------------
   112      0.640016  6 H  py               103     -0.570512  5 H  px         
    95      0.506872  4 H  px                84     -0.371470  3 C  dxx        
    87      0.371470  3 C  dyy               88      0.353707  3 C  dyz        
    96     -0.327400  4 H  py                54     -0.325639  2 Cl py         
    33      0.307933  1 I  dxx               36     -0.307933  1 I  dyy        

 Vector   37  Occ=0.000000D+00  E= 2.389908D-01  Symmetry=e
              MO Center=  1.3D-02,  3.1D-02, -1.2D+00, r^2= 7.5D+00
   Bfn.  Coefficient  Atom+Function         Bfn.  Coefficient  Atom+Function  
  ----- ------------  ---------------      ----- ------------  ---------------
    85      0.742940  3 C  dxy               34     -0.615866  1 I  dxy        
   111      0.604040  6 H  px               104      0.546563  5 H  py         
    96     -0.530821  4 H  py                63     -0.429167  2 Cl dxy        
    95     -0.363376  4 H  px                86     -0.353707  3 C  dxz        
    53      0.325639  2 Cl px               103     -0.294628  5 H  px         

 Vector   38  Occ=0.000000D+00  E= 2.669331D-01  Symmetry=a1
              MO Center=  5.1D-13,  1.2D-12, -2.0D+00, r^2= 1.3D+01
   Bfn.  Coefficient  Atom+Function         Bfn.  Coefficient  Atom+Function  
  ----- ------------  ---------------      ----- ------------  ---------------
    71     18.124412  3 C  s                 43     -8.292913  2 Cl s          
    70     -7.232523  3 C  s                  5     -6.181582  1 I  s          
    55     -3.274590  2 Cl pz                 4      2.068311  1 I  s          
    84     -1.906897  3 C  dxx               87     -1.906897  3 C  dyy        
    89     -1.561316  3 C  dzz               42      1.432754  2 Cl s          

 Vector   39  Occ=0.000000D+00  E= 2.732818D-01  Symmetry=e
              MO Center=  7.2D-02,  4.5D-02,  2.5D-01, r^2= 9.1D+00
   Bfn.  Coefficient  Atom+Function         Bfn.  Coefficient  Atom+Function  
  ----- ------------  ---------------      ----- ------------  ---------------
    35      0.940304  1 I  dxz               37     -0.746010  1 I  dyz        
    99     -0.576429  5 H  s                107      0.504522  6 H  s          
    95     -0.455825  4 H  px               111     -0.447124  6 H  px         
   103     -0.400611  5 H  px                53      0.379810  2 Cl px         
    96      0.371590  4 H  py               104      0.349759  5 H  py         

 Vector   40  Occ=0.000000D+00  E= 2.732818D-01  Symmetry=e
              MO Center= -7.2D-02, -4.5D-02,  2.5D-01, r^2= 9.1D+00
   Bfn.  Coefficient  Atom+Function         Bfn.  Coefficient  Atom+Function  
  ----- ------------  ---------------      ----- ------------  ---------------
    37      0.940304  1 I  dyz               35      0.746010  1 I  dxz        
    91      0.624087  4 H  s                104     -0.468429  5 H  py         
   112     -0.421917  6 H  py                96     -0.413215  4 H  py         
    85     -0.397277  3 C  dxy               34      0.379897  1 I  dxy        
    54      0.379810  2 Cl py               111     -0.376614  6 H  px         

 Vector   41  Occ=0.000000D+00  E= 2.978500D-01  Symmetry=e
              MO Center= -1.4D-02, -1.2D-02,  1.3D-01, r^2= 9.4D+00
   Bfn.  Coefficient  Atom+Function         Bfn.  Coefficient  Atom+Function  
  ----- ------------  ---------------      ----- ------------  ---------------
    34      1.430616  1 I  dxy               63     -0.636034  2 Cl dxy        
    91     -0.386712  4 H  s                104      0.322233  5 H  py         
   111      0.314227  6 H  px                85      0.302394  3 C  dxy        
    88     -0.208938  3 C  dyz              107      0.202072  6 H  s          
    86     -0.198338  3 C  dxz               97      0.198720  4 H  pz         

 Vector   42  Occ=0.000000D+00  E= 2.978500D-01  Symmetry=e
              MO Center=  1.4D-02,  1.2D-02,  1.3D-01, r^2= 9.4D+00
   Bfn.  Coefficient  Atom+Function         Bfn.  Coefficient  Atom+Function  
  ----- ------------  ---------------      ----- ------------  ---------------
    33      0.715308  1 I  dxx               36     -0.715308  1 I  dyy        
    99     -0.339935  5 H  s                107      0.329870  6 H  s          
    62     -0.318017  2 Cl dxx               65      0.318017  2 Cl dyy        
    96      0.259892  4 H  py                95     -0.256208  4 H  px         
    86      0.208938  3 C  dxz               88     -0.198338  3 C  dyz        

 Vector   43  Occ=0.000000D+00  E= 3.359382D-01  Symmetry=a1
              MO Center=  1.6D-15,  2.6D-14,  7.9D-01, r^2= 1.1D+01
   Bfn.  Coefficient  Atom+Function         Bfn.  Coefficient  Atom+Function  
  ----- ------------  ---------------      ----- ------------  ---------------
     5     10.310616  1 I  s                  4     -3.871210  1 I  s          
    33     -3.497189  1 I  dxx               36     -3.497189  1 I  dyy        
    38     -2.073449  1 I  dzz               70     -1.856990  3 C  s          
    71      1.579880  3 C  s                 20     -0.703716  1 I  pz         
    43     -0.616360  2 Cl s                 89     -0.604070  3 C  dzz        

 Vector   44  Occ=0.000000D+00  E= 3.400803D-01  Symmetry=e
              MO Center= -3.2D-02, -1.1D-01, -2.4D+00, r^2= 7.4D+00
   Bfn.  Coefficient  Atom+Function         Bfn.  Coefficient  Atom+Function  
  ----- ------------  ---------------      ----- ------------  ---------------
    66      1.146429  2 Cl dyz              107      0.911355  6 H  s          
   112      0.890661  6 H  py                64     -0.674969  2 Cl dxz        
    99     -0.674376  5 H  s                103     -0.625170  5 H  px         
    37      0.487735  1 I  dyz               88      0.372542  3 C  dyz        
   104      0.356297  5 H  py               113      0.353226  6 H  pz         

 Vector   45  Occ=0.000000D+00  E= 3.400803D-01  Symmetry=e
              MO Center=  3.2D-02,  1.1D-01, -2.4D+00, r^2= 7.4D+00
   Bfn.  Coefficient  Atom+Function         Bfn.  Coefficient  Atom+Function  
  ----- ------------  ---------------      ----- ------------  ---------------
    64      1.146429  2 Cl dxz               91     -0.915522  4 H  s          
    95      0.714299  4 H  px               103      0.709020  5 H  px         
    66      0.674969  2 Cl dyz               99      0.662991  5 H  s          
    96      0.622122  4 H  py                35      0.487735  1 I  dxz        
    86      0.372542  3 C  dxz               97     -0.354841  4 H  pz         

 Vector   46  Occ=0.000000D+00  E= 3.434763D-01  Symmetry=a1
              MO Center=  6.6D-14, -8.8D-14,  2.0D+00, r^2= 1.2D+01
   Bfn.  Coefficient  Atom+Function         Bfn.  Coefficient  Atom+Function  
  ----- ------------  ---------------      ----- ------------  ---------------
    71      9.325960  3 C  s                 70     -7.910279  3 C  s          
     5      5.981648  1 I  s                 43     -3.918241  2 Cl s          
    38     -3.829769  1 I  dzz                4     -2.710209  1 I  s          
    91      2.041239  4 H  s                 99      2.041239  5 H  s          
   107      2.041239  6 H  s                 33     -1.885330  1 I  dxx        

 Vector   47  Occ=0.000000D+00  E= 3.806183D-01  Symmetry=e
              MO Center=  6.0D-02, -1.8D-01, -1.7D+00, r^2= 9.1D+00
   Bfn.  Coefficient  Atom+Function         Bfn.  Coefficient  Atom+Function  
  ----- ------------  ---------------      ----- ------------  ---------------
    37      1.058726  1 I  dyz              107     -0.778381  6 H  s          
    63     -0.654042  2 Cl dxy               88     -0.602018  3 C  dyz        
   113     -0.554675  6 H  pz                62     -0.526992  2 Cl dxx        
    65      0.526992  2 Cl dyy               91      0.410626  4 H  s          
    76     -0.408333  3 C  py                99      0.367754  5 H  s          

 Vector   48  Occ=0.000000D+00  E= 3.806183D-01  Symmetry=e
              MO Center= -6.0D-02,  1.8D-01, -1.7D+00, r^2= 9.1D+00
   Bfn.  Coefficient  Atom+Function         Bfn.  Coefficient  Atom+Function  
  ----- ------------  ---------------      ----- ------------  ---------------
    35      1.058726  1 I  dxz               63     -1.053984  2 Cl dxy        
    99     -0.686474  5 H  s                 91      0.661721  4 H  s          
    86     -0.602018  3 C  dxz               85      0.536416  3 C  dxy        
   105     -0.489182  5 H  pz                97      0.471543  4 H  pz         
    34     -0.441070  1 I  dxy               75     -0.408333  3 C  px         

 Vector   49  Occ=0.000000D+00  E= 4.168230D-01  Symmetry=a1
              MO Center=  1.7D-13, -1.4D-13, -1.1D+00, r^2= 9.4D+00
   Bfn.  Coefficient  Atom+Function         Bfn.  Coefficient  Atom+Function  
  ----- ------------  ---------------      ----- ------------  ---------------
    70     28.134316  3 C  s                 71    -25.427151  3 C  s          
     5      5.535008  1 I  s                 91     -5.140345  4 H  s          
    99     -5.140345  5 H  s                107     -5.140345  6 H  s          
    84      4.820733  3 C  dxx               87      4.820733  3 C  dyy        
    89      3.891976  3 C  dzz               43      3.210924  2 Cl s          

 Vector   50  Occ=0.000000D+00  E= 4.253172D-01  Symmetry=e
              MO Center= -9.6D-02,  2.4D-01, -1.2D+00, r^2= 9.8D+00
   Bfn.  Coefficient  Atom+Function         Bfn.  Coefficient  Atom+Function  
  ----- ------------  ---------------      ----- ------------  ---------------
    37      1.308654  1 I  dyz              104      1.290741  5 H  py         
   107     -1.289525  6 H  s                 76     -1.197059  3 C  py         
    88     -1.125020  3 C  dyz               95     -1.106287  4 H  px         
    66     -1.002254  2 Cl dyz               96      0.728312  4 H  py         
    91      0.714260  4 H  s                 85      0.675258  3 C  dxy        

 Vector   51  Occ=0.000000D+00  E= 4.253172D-01  Symmetry=e
              MO Center=  9.6D-02, -2.4D-01, -1.2D+00, r^2= 9.8D+00
   Bfn.  Coefficient  Atom+Function         Bfn.  Coefficient  Atom+Function  
  ----- ------------  ---------------      ----- ------------  ---------------
   111      1.493055  6 H  px                35      1.308654  1 I  dxz        
    75     -1.197059  3 C  px                99     -1.156886  5 H  s          
    86     -1.125020  3 C  dxz               91      1.076636  4 H  s          
    85      1.017847  3 C  dxy               64     -1.002254  2 Cl dxz        
    96     -0.893422  4 H  py               104      0.781569  5 H  py         

 Vector   52  Occ=0.000000D+00  E= 4.285916D-01  Symmetry=a1
              MO Center=  5.3D-16, -6.9D-15, -2.4D+00, r^2= 1.1D+01
   Bfn.  Coefficient  Atom+Function         Bfn.  Coefficient  Atom+Function  
  ----- ------------  ---------------      ----- ------------  ---------------
    70     16.687003  3 C  s                 71     -8.563289  3 C  s          
    43      7.828879  2 Cl s                 91     -4.061587  4 H  s          
    99     -4.061587  5 H  s                107     -4.061587  6 H  s          
     5     -2.959749  1 I  s                 42     -2.754945  2 Cl s          
    62     -2.004726  2 Cl dxx               65     -2.004726  2 Cl dyy        

 Vector   53  Occ=0.000000D+00  E= 4.616250D-01  Symmetry=a1
              MO Center=  1.1D-13, -1.3D-13, -3.0D+00, r^2= 1.3D+01
   Bfn.  Coefficient  Atom+Function         Bfn.  Coefficient  Atom+Function  
  ----- ------------  ---------------      ----- ------------  ---------------
    70      5.300887  3 C  s                 71     -2.761076  3 C  s          
    67      2.160489  2 Cl dzz               55      2.079852  2 Cl pz         
    91     -2.057153  4 H  s                 99     -2.057153  5 H  s          
   107     -2.057153  6 H  s                 97      1.335097  4 H  pz         
   105      1.335097  5 H  pz               113      1.335097  6 H  pz         

 Vector   54  Occ=0.000000D+00  E= 4.720690D-01  Symmetry=a2
              MO Center= -3.0D-13, -1.3D-13, -1.4D+00, r^2= 6.0D+00
   Bfn.  Coefficient  Atom+Function         Bfn.  Coefficient  Atom+Function  
  ----- ------------  ---------------      ----- ------------  ---------------
   104      1.423111  5 H  py               111     -1.423111  6 H  px         
    95      1.041790  4 H  px                96     -1.041790  4 H  py         
   103      0.381321  5 H  px               112     -0.381321  6 H  py         

 Vector   55  Occ=0.000000D+00  E= 5.119858D-01  Symmetry=e
              MO Center= -6.1D-01, -1.7D-01, -1.4D+00, r^2= 6.5D+00
   Bfn.  Coefficient  Atom+Function         Bfn.  Coefficient  Atom+Function  
  ----- ------------  ---------------      ----- ------------  ---------------
    99      7.097214  5 H  s                107     -5.215746  6 H  s          
   103      3.665072  5 H  px                75      3.517823  3 C  px         
   112     -2.738674  6 H  py                76     -2.045430  3 C  py         
    91     -1.881468  4 H  s                 86      1.015661  3 C  dxz        
    96      0.939752  4 H  py               104     -0.889689  5 H  py         

 Vector   56  Occ=0.000000D+00  E= 5.119858D-01  Symmetry=e
              MO Center=  6.1D-01,  1.7D-01, -1.4D+00, r^2= 6.5D+00
   Bfn.  Coefficient  Atom+Function         Bfn.  Coefficient  Atom+Function  
  ----- ------------  ---------------      ----- ------------  ---------------
    91      7.108891  4 H  s                107     -5.183845  6 H  s          
    76     -3.517823  3 C  py                95     -2.732159  4 H  px         
    96     -2.608844  4 H  py               112     -2.597560  6 H  py         
    75     -2.045430  3 C  px                99     -1.925046  5 H  s          
    85      1.127776  3 C  dxy               88     -1.015661  3 C  dyz        

 Vector   57  Occ=0.000000D+00  E= 5.178620D-01  Symmetry=a1
              MO Center= -1.2D-12, -2.1D-12, -1.8D+00, r^2= 8.4D+00
   Bfn.  Coefficient  Atom+Function         Bfn.  Coefficient  Atom+Function  
  ----- ------------  ---------------      ----- ------------  ---------------
    71      7.934528  3 C  s                  5     -4.108056  1 I  s          
    43     -2.933290  2 Cl s                 77      2.647921  3 C  pz         
    91     -1.740428  4 H  s                 99     -1.740428  5 H  s          
   107     -1.740428  6 H  s                  4      1.521353  1 I  s          
    38      1.340426  1 I  dzz               67      1.310646  2 Cl dzz        

 Vector   58  Occ=0.000000D+00  E= 5.317304D-01  Symmetry=e
              MO Center=  3.6D-02,  8.8D-02, -2.1D+00, r^2= 1.0D+01
   Bfn.  Coefficient  Atom+Function         Bfn.  Coefficient  Atom+Function  
  ----- ------------  ---------------      ----- ------------  ---------------
    91      3.105388  4 H  s                 64     -2.111381  2 Cl dxz        
    99     -2.086815  5 H  s                 97     -1.538178  4 H  pz         
    85     -1.524146  3 C  dxy               86     -1.440788  3 C  dxz        
    66     -1.411679  2 Cl dyz              105      1.033653  5 H  pz         
    35     -1.026133  1 I  dxz               53     -1.030219  2 Cl px         

 Vector   59  Occ=0.000000D+00  E= 5.317304D-01  Symmetry=e
              MO Center= -3.6D-02, -8.8D-02, -2.1D+00, r^2= 1.0D+01
   Bfn.  Coefficient  Atom+Function         Bfn.  Coefficient  Atom+Function  
  ----- ------------  ---------------      ----- ------------  ---------------
   107      2.997720  6 H  s                 99     -2.380970  5 H  s          
    66      2.111381  2 Cl dyz              113     -1.484847  6 H  pz         
    88      1.440788  3 C  dyz               64     -1.411679  2 Cl dxz        
   105      1.179355  5 H  pz                37      1.026133  1 I  dyz        
    54      1.030219  2 Cl py                86     -0.963317  3 C  dxz        

 Vector   60  Occ=0.000000D+00  E= 5.433137D-01  Symmetry=a1
              MO Center= -1.7D-12, -1.9D-12, -1.7D+00, r^2= 9.5D+00
   Bfn.  Coefficient  Atom+Function         Bfn.  Coefficient  Atom+Function  
  ----- ------------  ---------------      ----- ------------  ---------------
    71     13.355830  3 C  s                 70     11.490611  3 C  s          
    43     -6.330531  2 Cl s                 91     -5.850772  4 H  s          
    99     -5.850772  5 H  s                107     -5.850772  6 H  s          
     5     -2.559163  1 I  s                 55     -2.346263  2 Cl pz         
   103     -1.951590  5 H  px               112     -1.951590  6 H  py         

 Vector   61  Occ=0.000000D+00  E= 5.915449D-01  Symmetry=e
              MO Center= -1.8D-01, -8.2D-02, -1.6D+00, r^2= 7.4D+00
   Bfn.  Coefficient  Atom+Function         Bfn.  Coefficient  Atom+Function  
  ----- ------------  ---------------      ----- ------------  ---------------
    91     10.124159  4 H  s                 85     -7.124143  3 C  dxy        
   107     -6.648226  6 H  s                 99     -3.475933  5 H  s          
    88     -2.949615  3 C  dyz              104     -2.599314  5 H  py         
    86     -2.045895  3 C  dxz              112     -2.026362  6 H  py         
    96     -1.968673  4 H  py               111     -1.888746  6 H  px         

 Vector   62  Occ=0.000000D+00  E= 5.915449D-01  Symmetry=e
              MO Center=  1.8D-01,  8.2D-02, -1.6D+00, r^2= 7.4D+00
   Bfn.  Coefficient  Atom+Function         Bfn.  Coefficient  Atom+Function  
  ----- ------------  ---------------      ----- ------------  ---------------
    99      9.683541  5 H  s                107     -7.852017  6 H  s          
    84     -3.562072  3 C  dxx               87      3.562072  3 C  dyy        
    86      2.949615  3 C  dxz               95      2.427560  4 H  px         
   111      2.369870  6 H  px                88     -2.045895  3 C  dyz        
    96     -1.855439  4 H  py                75      1.833340  3 C  px         

 Vector   63  Occ=0.000000D+00  E= 6.162358D-01  Symmetry=e
              MO Center= -3.0D-02, -2.3D-02, -1.1D+00, r^2= 7.2D+00
   Bfn.  Coefficient  Atom+Function         Bfn.  Coefficient  Atom+Function  
  ----- ------------  ---------------      ----- ------------  ---------------
    91     -8.197038  4 H  s                 85      8.135249  3 C  dxy        
    88     -4.517762  3 C  dyz              107      4.527042  6 H  s          
    86     -4.003382  3 C  dxz               97      3.913267  4 H  pz         
    99      3.669996  5 H  s                104      3.151125  5 H  py         
   111      2.883609  6 H  px               113     -2.161211  6 H  pz         

 Vector   64  Occ=0.000000D+00  E= 6.162358D-01  Symmetry=e
              MO Center=  3.0D-02,  2.3D-02, -1.1D+00, r^2= 7.2D+00
   Bfn.  Coefficient  Atom+Function         Bfn.  Coefficient  Atom+Function  
  ----- ------------  ---------------      ----- ------------  ---------------
    99      7.346251  5 H  s                107     -6.851435  6 H  s          
    86     -4.517762  3 C  dxz               84     -4.067625  3 C  dxx        
    87      4.067625  3 C  dyy               88      4.003382  3 C  dyz        
   105     -3.507102  5 H  pz               113      3.270877  6 H  pz         
    95      2.791638  4 H  px                96     -2.656316  4 H  py         

 Vector   65  Occ=0.000000D+00  E= 6.333700D-01  Symmetry=a1
              MO Center=  6.0D-14, -3.7D-14, -8.4D-02, r^2= 7.8D+00
   Bfn.  Coefficient  Atom+Function         Bfn.  Coefficient  Atom+Function  
  ----- ------------  ---------------      ----- ------------  ---------------
    71     -8.447427  3 C  s                 70      7.836020  3 C  s          
    42      3.464682  2 Cl s                 89     -3.292784  3 C  dzz        
    91     -2.838065  4 H  s                 99     -2.838065  5 H  s          
   107     -2.838065  6 H  s                 43      2.606681  2 Cl s          
    84      2.348630  3 C  dxx               87      2.348630  3 C  dyy        

 Vector   66  Occ=0.000000D+00  E= 6.715227D-01  Symmetry=a1
              MO Center=  1.3D-12,  9.9D-13, -1.8D+00, r^2= 6.7D+00
   Bfn.  Coefficient  Atom+Function         Bfn.  Coefficient  Atom+Function  
  ----- ------------  ---------------      ----- ------------  ---------------
    70     81.111727  3 C  s                 71    -32.812280  3 C  s          
    91    -26.626884  4 H  s                 99    -26.626884  5 H  s          
   107    -26.626884  6 H  s                 84     14.366709  3 C  dxx        
    87     14.366709  3 C  dyy               89      7.828457  3 C  dzz        
    43      7.654741  2 Cl s                103     -6.777898  5 H  px         

 Vector   67  Occ=0.000000D+00  E= 7.344695D-01  Symmetry=e
              MO Center=  4.9D-02,  3.6D-02,  9.4D-01, r^2= 5.5D+00
   Bfn.  Coefficient  Atom+Function         Bfn.  Coefficient  Atom+Function  
  ----- ------------  ---------------      ----- ------------  ---------------
    97      1.869125  4 H  pz                88     -1.450043  3 C  dyz        
    16     -1.367747  1 I  py                86     -1.242662  3 C  dxz        
    13      1.172664  1 I  py                15     -1.172136  1 I  px         
    85      1.154693  3 C  dxy               91     -1.123598  4 H  s          
   113     -1.059229  6 H  pz                12      1.004952  1 I  px         

 Vector   68  Occ=0.000000D+00  E= 7.344695D-01  Symmetry=e
              MO Center= -4.9D-02, -3.6D-02,  9.4D-01, r^2= 5.5D+00
   Bfn.  Coefficient  Atom+Function         Bfn.  Coefficient  Atom+Function  
  ----- ------------  ---------------      ----- ------------  ---------------
   105      1.690686  5 H  pz               113     -1.546733  6 H  pz         
    86      1.450043  3 C  dxz               15      1.367747  1 I  px         
    88     -1.242662  3 C  dyz               12     -1.172664  1 I  px         
    16     -1.172136  1 I  py                99     -1.016332  5 H  s          
    13      1.004952  1 I  py               107      0.929797  6 H  s          

 Vector   69  Occ=0.000000D+00  E= 8.133099D-01  Symmetry=e
              MO Center=  7.1D-03,  1.3D-02,  1.3D+00, r^2= 3.2D+00
   Bfn.  Coefficient  Atom+Function         Bfn.  Coefficient  Atom+Function  
  ----- ------------  ---------------      ----- ------------  ---------------
    28      2.057070  1 I  dxy               34     -1.091612  1 I  dxy        
    85     -0.784668  3 C  dxy               91      0.771138  4 H  s          
    22     -0.739454  1 I  dxy               86      0.502700  3 C  dxz        
    99     -0.482051  5 H  s                111     -0.427322  6 H  px         
    97     -0.410132  4 H  pz                88      0.375784  3 C  dyz        

 Vector   70  Occ=0.000000D+00  E= 8.133099D-01  Symmetry=e
              MO Center= -7.1D-03, -1.3D-02,  1.3D+00, r^2= 3.2D+00
   Bfn.  Coefficient  Atom+Function         Bfn.  Coefficient  Atom+Function  
  ----- ------------  ---------------      ----- ------------  ---------------
    27      1.028535  1 I  dxx               30     -1.028535  1 I  dyy        
   107     -0.723529  6 H  s                 99      0.612121  5 H  s          
    33     -0.545806  1 I  dxx               36      0.545806  1 I  dyy        
    88      0.502700  3 C  dyz               84     -0.392334  3 C  dxx        
    87      0.392334  3 C  dyy              113      0.384811  6 H  pz         

 Vector   71  Occ=0.000000D+00  E= 8.146135D-01  Symmetry=a1
              MO Center=  1.3D-14, -1.8D-14,  1.3D+00, r^2= 6.6D+00
   Bfn.  Coefficient  Atom+Function         Bfn.  Coefficient  Atom+Function  
  ----- ------------  ---------------      ----- ------------  ---------------
     5     11.418392  1 I  s                 70      6.454893  3 C  s          
    71     -5.778284  3 C  s                 33     -4.339732  1 I  dxx        
    36     -4.339732  1 I  dyy                3     -4.064353  1 I  s          
    38     -3.560588  1 I  dzz                4      2.372564  1 I  s          
    84      1.406699  3 C  dxx               87      1.406699  3 C  dyy        

 Vector   72  Occ=0.000000D+00  E= 8.360068D-01  Symmetry=e
              MO Center=  6.1D-03, -8.6D-04,  8.8D-01, r^2= 5.2D+00
   Bfn.  Coefficient  Atom+Function         Bfn.  Coefficient  Atom+Function  
  ----- ------------  ---------------      ----- ------------  ---------------
    85      3.103351  3 C  dxy               91     -2.896352  4 H  s          
   107      2.699583  6 H  s                 31     -1.869157  1 I  dyz        
   104      1.563671  5 H  py                37      1.435767  1 I  dyz        
    96      1.127578  4 H  py                76      1.013026  3 C  py         
   112      1.011319  6 H  py                84      0.774137  3 C  dxx        

 Vector   73  Occ=0.000000D+00  E= 8.360068D-01  Symmetry=e
              MO Center= -6.1D-03,  8.6D-04,  8.8D-01, r^2= 5.2D+00
   Bfn.  Coefficient  Atom+Function         Bfn.  Coefficient  Atom+Function  
  ----- ------------  ---------------      ----- ------------  ---------------
    99      3.230814  5 H  s                 29     -1.869157  1 I  dxz        
   107     -1.785814  6 H  s                 84     -1.551676  3 C  dxx        
    85      1.548273  3 C  dxy               87      1.551676  3 C  dyy        
   111      1.457060  6 H  px                91     -1.445000  4 H  s          
    35      1.435767  1 I  dxz               95      1.340800  4 H  px         

 Vector   74  Occ=0.000000D+00  E= 9.071784D-01  Symmetry=a1
              MO Center= -8.0D-15, -3.0D-14,  8.9D-01, r^2= 6.7D+00
   Bfn.  Coefficient  Atom+Function         Bfn.  Coefficient  Atom+Function  
  ----- ------------  ---------------      ----- ------------  ---------------
    71      9.165256  3 C  s                 17      2.708795  1 I  pz         
    38     -2.319336  1 I  dzz               43     -2.136755  2 Cl s          
    14     -1.686134  1 I  pz                91     -1.343977  4 H  s          
    99     -1.343977  5 H  s                107     -1.343977  6 H  s          
    89     -1.185476  3 C  dzz               97      0.965539  4 H  pz         

 Vector   75  Occ=0.000000D+00  E= 9.724389D-01  Symmetry=e
              MO Center= -1.7D-01,  1.0D-02, -2.6D+00, r^2= 3.6D+00
   Bfn.  Coefficient  Atom+Function         Bfn.  Coefficient  Atom+Function  
  ----- ------------  ---------------      ----- ------------  ---------------
    91      6.141639  4 H  s                107     -5.466945  6 H  s          
    76     -4.510472  3 C  py                85     -2.977253  3 C  dxy        
    75     -1.708725  3 C  px               112     -1.304119  6 H  py         
    88     -1.207632  3 C  dyz               96     -1.194814  4 H  py         
    66      1.007604  2 Cl dyz               60     -0.980705  2 Cl dyz        

 Vector   76  Occ=0.000000D+00  E= 9.724389D-01  Symmetry=e
              MO Center=  1.7D-01, -1.0D-02, -2.6D+00, r^2= 3.6D+00
   Bfn.  Coefficient  Atom+Function         Bfn.  Coefficient  Atom+Function  
  ----- ------------  ---------------      ----- ------------  ---------------
    99      6.702219  5 H  s                 75      4.510472  3 C  px         
   107     -3.935412  6 H  s                 91     -2.766807  4 H  s          
    76     -1.708725  3 C  py                84     -1.488627  3 C  dxx        
    87      1.488627  3 C  dyy              103      1.443180  5 H  px         
    85      1.341252  3 C  dxy               86      1.207632  3 C  dxz        

 Vector   77  Occ=0.000000D+00  E= 1.036146D+00  Symmetry=a1
              MO Center=  9.5D-14,  7.5D-14, -6.5D-01, r^2= 6.4D+00
   Bfn.  Coefficient  Atom+Function         Bfn.  Coefficient  Atom+Function  
  ----- ------------  ---------------      ----- ------------  ---------------
    70     11.971754  3 C  s                 91     -5.512880  4 H  s          
    99     -5.512880  5 H  s                107     -5.512880  6 H  s          
     4      2.908505  1 I  s                 71      2.478818  3 C  s          
     5     -1.820389  1 I  s                 17     -1.783025  1 I  pz         
    89     -1.339057  3 C  dzz              103     -1.265673  5 H  px         

 Vector   78  Occ=0.000000D+00  E= 1.057694D+00  Symmetry=e
              MO Center= -2.6D-01, -1.2D-01, -1.5D+00, r^2= 4.6D+00
   Bfn.  Coefficient  Atom+Function         Bfn.  Coefficient  Atom+Function  
  ----- ------------  ---------------      ----- ------------  ---------------
    99      5.850776  5 H  s                107     -4.794925  6 H  s          
    75      2.801672  3 C  px               103      2.462095  5 H  px         
   112     -2.046206  6 H  py                76     -1.980210  3 C  py         
    91     -1.055850  4 H  s                 98     -0.836130  5 H  s          
    84      0.814538  3 C  dxx               87     -0.814538  3 C  dyy        

 Vector   79  Occ=0.000000D+00  E= 1.057694D+00  Symmetry=e
              MO Center=  2.6D-01,  1.2D-01, -1.5D+00, r^2= 4.6D+00
   Bfn.  Coefficient  Atom+Function         Bfn.  Coefficient  Atom+Function  
  ----- ------------  ---------------      ----- ------------  ---------------
    91      6.146298  4 H  s                107     -3.987542  6 H  s          
    76     -2.801672  3 C  py                99     -2.158756  5 H  s          
    75     -1.980210  3 C  px                95     -1.909109  4 H  px         
    96     -1.835176  4 H  py                85      1.629076  3 C  dxy        
   112     -1.597717  6 H  py                63     -0.905247  2 Cl dxy        

 Vector   80  Occ=0.000000D+00  E= 1.097251D+00  Symmetry=a1
              MO Center=  5.5D-14, -1.1D-13, -2.6D+00, r^2= 4.3D+00
   Bfn.  Coefficient  Atom+Function         Bfn.  Coefficient  Atom+Function  
  ----- ------------  ---------------      ----- ------------  ---------------
    71      8.936424  3 C  s                 43     -4.067237  2 Cl s          
    42     -3.626450  2 Cl s                 77     -3.543231  3 C  pz         
    70     -1.997624  3 C  s                 84     -2.005665  3 C  dxx        
    87     -2.005665  3 C  dyy               52     -1.743335  2 Cl pz         
    41      1.391814  2 Cl s                 62      1.358774  2 Cl dxx        

 Vector   81  Occ=0.000000D+00  E= 1.111454D+00  Symmetry=e
              MO Center= -3.3D-02, -2.7D-02, -3.1D+00, r^2= 2.5D+00
   Bfn.  Coefficient  Atom+Function         Bfn.  Coefficient  Atom+Function  
  ----- ------------  ---------------      ----- ------------  ---------------
    99      2.376916  5 H  s                107     -2.226226  6 H  s          
    75      1.474828  3 C  px                76     -1.316554  3 C  py         
   103      1.078175  5 H  px               112     -1.027437  6 H  py         
    56     -0.846925  2 Cl dxx               59      0.846925  2 Cl dyy        
    86      0.464633  3 C  dxz               62      0.434863  2 Cl dxx        

 Vector   82  Occ=0.000000D+00  E= 1.111454D+00  Symmetry=e
              MO Center=  3.3D-02,  2.7D-02, -3.1D+00, r^2= 2.5D+00
   Bfn.  Coefficient  Atom+Function         Bfn.  Coefficient  Atom+Function  
  ----- ------------  ---------------      ----- ------------  ---------------
[...]
              --------------
                         B3LYP Method XC Potential
                     Hartree-Fock (Exact) Exchange  0.200          
                        Slater Exchange Functional  0.800 local    
                    Becke 1988 Exchange Functional  0.720 non-local
              Lee-Yang-Parr Correlation Functional  0.810          
                  VWN I RPA Correlation Functional  0.190 local    

             Grid Information
             ----------------
          Grid used for XC integration:  medium    
          Radial quadrature: Mura-Knowles        
          Angular quadrature: Lebedev. 
          Tag              B.-S. Rad. Rad. Pts. Rad. Cut. Ang. Pts.
          ---              ---------- --------- --------- ---------
          I                   1.40      123          16.0       590
          Cl                  1.00       88          18.0       590
          C                   0.70       49          13.0       434
          H                   0.35       45          12.0       434
          Grid pruning is: on 
          Number of quadrature shells:   305
          Spatial weights used:  Erf1

          Convergence Information
          -----------------------
          Convergence aids based upon iterative change in 
          total energy or number of iterations. 
          Levelshifting, if invoked, occurs when the 
          HOMO/LUMO gap drops below (HL_TOL):  1.00D-02
          DIIS, if invoked, will attempt to extrapolate 
          using up to (NFOCK): 10 stored Fock matrices.

                    Damping( 0%)  Levelshifting(0.5)       DIIS
                  --------------- ------------------- ---------------
          dE  on:    start            ASAP                start   
          dE off:    2 iters         50 iters            50 iters 


      Screening Tolerance Information
      -------------------------------
          Density screening/tol_rho:  1.00D-10
          AO Gaussian exp screening on grid/accAOfunc:  14
          CD Gaussian exp screening on grid/accCDfunc:  20
          XC Gaussian exp screening on grid/accXCfunc:  20
          Schwarz screening/accCoul:  1.00D-08



                            NWChem DFT Gradient Module
                            --------------------------


                                       Title



  charge          =  -1.00
  wavefunction    = closed shell

  Rotation of axis 
  Using symmetry


                         DFT ENERGY GRADIENTS

    atom               coordinates                        gradient
                 x          y          z           x          y          z
   1 I       0.000000   0.000000   3.049228    0.000000   0.000000   0.018035
   2 Cl      0.000000   0.000000  -8.083148    0.000000   0.000000  -0.016175
   3 C      -0.000000  -0.000000  -2.619950    0.000000   0.000000  -0.001846
   4 H       1.448154   1.448154  -2.699352   -0.000008  -0.000008  -0.000005
   5 H      -1.978216   0.530061  -2.699352    0.000011  -0.000003  -0.000005
   6 H       0.530061  -1.978216  -2.699352   -0.000003   0.000011  -0.000005

                 ----------------------------------------
                 |  Time  |  1-e(secs)   |  2-e(secs)   |
                 ----------------------------------------
                 |  CPU   |       0.02   |       3.68   |
                 ----------------------------------------
                 |  WALL  |       0.02   |       3.68   |
                 ----------------------------------------

  Step       Energy      Delta E   Gmax     Grms     Xrms     Xmax   Walltime
  ---- ---------------- -------- -------- -------- -------- -------- --------
@    2    -797.83964886  1.9D-08  0.00001  0.00001  0.00030  0.00053    264.5
                                     ok       ok       ok       ok  

  Internal coordinate gradient before constraints


                                Z-matrix (autoz)
                                -------- 

 Units are Angstrom for bonds and degrees for angles

  Constants are marked with an asterisk (*).

      Type          Name      I     J     K     L     M      Value     Gradient
      ----------- --------  ----- ----- ----- ----- ----- ---------- ----------
    1*Stretch      ci          1     3                       3.00000    0.01803
    2*Stretch      ccl         2     3                       2.89100    0.01617
    3 Stretch                  3     4                       1.08457   -0.00001
    4 Stretch                  3     5                       1.08457   -0.00001
    5 Stretch                  3     6                       1.08457   -0.00001
    6 Bend                     1     3     4                92.22029    0.00000
    7 Bend                     1     3     5                92.22029    0.00000
    8 Bend                     1     3     6                92.22029    0.00000
    9 Bend                     2     3     4                87.77971   -0.00000
   10 Bend                     2     3     5                87.77971   -0.00000
   11 Bend                     2     3     6                87.77971   -0.00000
   12 Bend                     4     3     5               119.85116   -0.00000
   13 Bend                     4     3     6               119.85116   -0.00000
   14 Bend                     5     3     6               119.85116   -0.00000

  Internal coordinate gradient after constraints


                                Z-matrix (autoz)
                                -------- 

 Units are Angstrom for bonds and degrees for angles

  Constants are marked with an asterisk (*).

      Type          Name      I     J     K     L     M      Value     Gradient
      ----------- --------  ----- ----- ----- ----- ----- ---------- ----------
    1*Stretch      ci          1     3                       3.00000   -0.00000
    2*Stretch      ccl         2     3                       2.89100    0.00000
    3 Stretch                  3     4                       1.08457   -0.00001
    4 Stretch                  3     5                       1.08457   -0.00001
    5 Stretch                  3     6                       1.08457   -0.00001
    6 Bend                     1     3     4                92.22029    0.00000
    7 Bend                     1     3     5                92.22029    0.00000
    8 Bend                     1     3     6                92.22029    0.00000
    9 Bend                     2     3     4                87.77971   -0.00000
   10 Bend                     2     3     5                87.77971   -0.00000
   11 Bend                     2     3     6                87.77971   -0.00000
   12 Bend                     4     3     5               119.85116   -0.00000
   13 Bend                     4     3     6               119.85116   -0.00000
   14 Bend                     5     3     6               119.85116   -0.00000


      ----------------------
      Optimization converged
      ----------------------


  Step       Energy      Delta E   Gmax     Grms     Xrms     Xmax   Walltime
  ---- ---------------- -------- -------- -------- -------- -------- --------
@    2    -797.83964886  1.9D-08  0.00001  0.00001  0.00030  0.00053    264.5
                                     ok       ok       ok       ok  

  Internal coordinate gradient before constraints


                                Z-matrix (autoz)
                                -------- 

 Units are Angstrom for bonds and degrees for angles

  Constants are marked with an asterisk (*).

      Type          Name      I     J     K     L     M      Value     Gradient
      ----------- --------  ----- ----- ----- ----- ----- ---------- ----------
    1*Stretch      ci          1     3                       3.00000    0.01803
    2*Stretch      ccl         2     3                       2.89100    0.01617
    3 Stretch                  3     4                       1.08457   -0.00001
    4 Stretch                  3     5                       1.08457   -0.00001
    5 Stretch                  3     6                       1.08457   -0.00001
    6 Bend                     1     3     4                92.22029    0.00000
    7 Bend                     1     3     5                92.22029    0.00000
    8 Bend                     1     3     6                92.22029    0.00000
    9 Bend                     2     3     4                87.77971   -0.00000
   10 Bend                     2     3     5                87.77971   -0.00000
   11 Bend                     2     3     6                87.77971   -0.00000
   12 Bend                     4     3     5               119.85116   -0.00000
   13 Bend                     4     3     6               119.85116   -0.00000
   14 Bend                     5     3     6               119.85116   -0.00000

  Internal coordinate gradient after constraints


                                Z-matrix (autoz)
                                -------- 

 Units are Angstrom for bonds and degrees for angles

  Constants are marked with an asterisk (*).

      Type          Name      I     J     K     L     M      Value     Gradient
      ----------- --------  ----- ----- ----- ----- ----- ---------- ----------
    1*Stretch      ci          1     3                       3.00000   -0.00000
    2*Stretch      ccl         2     3                       2.89100    0.00000
    3 Stretch                  3     4                       1.08457   -0.00001
    4 Stretch                  3     5                       1.08457   -0.00001
    5 Stretch                  3     6                       1.08457   -0.00001
    6 Bend                     1     3     4                92.22029    0.00000
    7 Bend                     1     3     5                92.22029    0.00000
    8 Bend                     1     3     6                92.22029    0.00000
    9 Bend                     2     3     4                87.77971   -0.00000
   10 Bend                     2     3     5                87.77971   -0.00000
   11 Bend                     2     3     6                87.77971   -0.00000
   12 Bend                     4     3     5               119.85116   -0.00000
   13 Bend                     4     3     6               119.85116   -0.00000
   14 Bend                     5     3     6               119.85116   -0.00000



                         Geometry "geometry" -> "geometry"
                         ---------------------------------

 Output coordinates in angstroms (scale by  1.889725989 to convert to a.u.)

  No.       Tag          Charge          X              Y              Z
 ---- ---------------- ---------- -------------- -------------- --------------
    1 I                   53.0000     0.00000000     0.00000000     1.61358221
    2 Cl                  17.0000     0.00000000     0.00000000    -4.27741779
    3 C                    6.0000    -0.00000000    -0.00000000    -1.38641779
    4 H                    1.0000     0.76633039     0.76633039    -1.42843586
    5 H                    1.0000    -1.04682679     0.28049639    -1.42843586
    6 H                    1.0000     0.28049639    -1.04682679    -1.42843586

      Atomic Mass 
      ----------- 

      I                126.900400
      Cl                34.968850
      C                 12.000000
      H                  1.007825


 Effective nuclear repulsion energy (a.u.)     200.2352805765

            Nuclear Dipole moment (a.u.) 
            ----------------------------
        X                 Y               Z
 ---------------- ---------------- ----------------
    -0.0000000000     0.0000000000     0.3778318724

      Symmetry information
      --------------------

 Group name             C3v       
 Group number             17
 Group order               6
 No. of unique centers     4

      Symmetry unique atoms

     1    2    3    4


                Final and change from initial internal coordinates
                --------------------------------------------------



                                Z-matrix (autoz)
                                -------- 

 Units are Angstrom for bonds and degrees for angles

  Constants are marked with an asterisk (*).

      Type          Name      I     J     K     L     M      Value       Change
      ----------- --------  ----- ----- ----- ----- ----- ---------- ----------
    1*Stretch      ci          1     3                       3.00000   -0.00000
    2*Stretch      ccl         2     3                       2.89100   -0.00000
    3 Stretch                  3     4                       1.08457    0.00069
    4 Stretch                  3     5                       1.08457    0.00069
    5 Stretch                  3     6                       1.08457    0.00069
    6 Bend                     1     3     4                92.22029    0.89373
    7 Bend                     1     3     5                92.22029    0.89373
    8 Bend                     1     3     6                92.22029    0.89373
    9 Bend                     2     3     4                87.77971   -0.89373
   10 Bend                     2     3     5                87.77971   -0.89373
   11 Bend                     2     3     6                87.77971   -0.89373
   12 Bend                     4     3     5               119.85116   -0.09566
   13 Bend                     4     3     6               119.85116   -0.09566
   14 Bend                     5     3     6               119.85116   -0.09566

 ==============================================================================
                                internuclear distances
 ------------------------------------------------------------------------------
       center one      |      center two      | atomic units |  angstroms
 ------------------------------------------------------------------------------
    4 H                |   3 C                |     2.04954  |     1.08457
    5 H                |   3 C                |     2.04954  |     1.08457
    6 H                |   3 C                |     2.04954  |     1.08457
 ------------------------------------------------------------------------------
                         number of included internuclear distances:          3
 ==============================================================================



 ==============================================================================
                                 internuclear angles
 ------------------------------------------------------------------------------
        center 1       |       center 2       |       center 3       |  degrees
 ------------------------------------------------------------------------------
    4 H                |   3 C                |   5 H                |   119.85
    4 H                |   3 C                |   6 H                |   119.85
    5 H                |   3 C                |   6 H                |   119.85
 ------------------------------------------------------------------------------
                            number of included internuclear angles:          3
 ==============================================================================



 
 Scanning NWChem input - results from step  11
 
(-797.8396488602882, [5.782411586589357e-19, 2.8912057932946783e-19, 0.018034658850566335, 0.0, 0.0, -0.01617484057943846, 0.0, 0.0, -0.0018455199051772009, -7.977511926974637e-06, -7.977511926974637e-06, -4.766122064523795e-06, 1.0897483951259149e-05, -2.919972024321519e-06, -4.766122064523795e-06, -2.919972024321519e-06, 1.0897483951259149e-05, -4.766122064523795e-06])
 

 Task  times  cpu:      264.1s     wall:      264.4s


                                NWChem Input Module
                                -------------------


 Summary of allocated global arrays
-----------------------------------
  No active global arrays


MA_summarize_allocated_blocks: starting scan ...
MA_summarize_allocated_blocks: scan completed: 0 heap blocks, 0 stack blocks
MA usage statistics:

	allocation statistics:
					      heap	     stack
					      ----	     -----
	current number of blocks	         0	         0
	maximum number of blocks	        42	        62
	current total bytes		         0	         0
	maximum total bytes		 270310504	  33245976
	maximum total K-bytes		    270311	     33246
	maximum total M-bytes		       271	        34


                                     CITATION
                                     --------
                Please cite the following reference when publishing
                           results obtained with NWChem:

          E. Apra, E. J. Bylaska, W. A. de Jong, N. Govind, K. Kowalski,
       T. P. Straatsma, M. Valiev, H. J. J. van Dam, Y. Alexeev, J. Anchell,
       V. Anisimov, F. W. Aquino, R. Atta-Fynn, J. Autschbach, N. P. Bauman,
     J. C. Becca, D. E. Bernholdt, K. Bhaskaran-Nair, S. Bogatko, P. Borowski,
         J. Boschen, J. Brabec, A. Bruner, E. Cauet, Y. Chen, G. N. Chuev,
      C. J. Cramer, J. Daily, M. J. O. Deegan, T. H. Dunning Jr., M. Dupuis,
   K. G. Dyall, G. I. Fann, S. A. Fischer, A. Fonari, H. Fruchtl, L. Gagliardi,
      J. Garza, N. Gawande, S. Ghosh, K. Glaesemann, A. W. Gotz, J. Hammond,
       V. Helms, E. D. Hermes, K. Hirao, S. Hirata, M. Jacquelin, L. Jensen,
   B. G. Johnson, H. Jonsson, R. A. Kendall, M. Klemm, R. Kobayashi, V. Konkov,
      S. Krishnamoorthy, M. Krishnan, Z. Lin, R. D. Lins, R. J. Littlefield,
      A. J. Logsdail, K. Lopata, W. Ma, A. V. Marenich, J. Martin del Campo,
   D. Mejia-Rodriguez, J. E. Moore, J. M. Mullin, T. Nakajima, D. R. Nascimento,
    J. A. Nichols, P. J. Nichols, J. Nieplocha, A. Otero-de-la-Roza, B. Palmer,
    A. Panyala, T. Pirojsirikul, B. Peng, R. Peverati, J. Pittner, L. Pollack,
   R. M. Richard, P. Sadayappan, G. C. Schatz, W. A. Shelton, D. W. Silverstein,
   D. M. A. Smith, T. A. Soares, D. Song, M. Swart, H. L. Taylor, G. S. Thomas,
            V. Tipparaju, D. G. Truhlar, K. Tsemekhman, T. Van Voorhis,
      A. Vazquez-Mayagoitia, P. Verma, O. Villa, A. Vishnu, K. D. Vogiatzis,
        D. Wang, J. H. Weare, M. J. Williamson, T. L. Windus, K. Wolinski,
        A. T. Wong, Q. Wu, C. Yang, Q. Yu, M. Zacharias, Z. Zhang, Y. Zhao,
                                and R. J. Harrison
                        "NWChem: Past, present, and future
                         J. Chem. Phys. 152, 184102 (2020)
                               doi:10.1063/5.0004997

                                      AUTHORS
                                      -------
  E. Apra, E. J. Bylaska, N. Govind, K. Kowalski, M. Valiev, D. Mejia-Rodriguez,
       A. Kunitsa, N. P. Bauman, A. Panyala, W. A. de Jong, T. P. Straatsma,
   H. J. J. van Dam, D. Wang, T. L. Windus, J. Hammond, J. Autschbach, A. Woods,
    K. Bhaskaran-Nair, J. Brabec, K. Lopata, S. A. Fischer, S. Krishnamoorthy,
     M. Jacquelin, W. Ma, M. Klemm, O. Villa, Y. Chen, V. Anisimov, F. Aquino,
     S. Hirata, M. T. Hackler, E. Hermes, L. Jensen, J. E. Moore, J. C. Becca,
      V. Konjkov, T. Risthaus, M. Malagoli, A. Marenich, A. Otero-de-la-Roza,
        J. Mullin, P. Nichols, R. Peverati, J. Pittner, Y. Zhao, P.-D. Fan,
        A. Fonari, M. J. Williamson, R. J. Harrison, J. R. Rehr, M. Dupuis,
     D. Silverstein, D. M. A. Smith, J. Nieplocha, V. Tipparaju, M. Krishnan,
     B. E. Van Kuiken, A. Vazquez-Mayagoitia, M. Swart, Q. Wu, T. Van Voorhis,
     A. A. Auer, M. Nooijen, L. D. Crosby, E. Brown, G. Cisneros, G. I. Fann,
   H. Fruchtl, J. Garza, K. Hirao, R. A. Kendall, J. A. Nichols, K. Tsemekhman,
    K. Wolinski, J. Anchell, D. E. Bernholdt, P. Borowski, T. Clark, D. Clerc,
   H. Dachsel, M. J. O. Deegan, K. Dyall, D. Elwood, E. Glendening, M. Gutowski,
   A. C. Hess, J. Jaffe, B. G. Johnson, J. Ju, R. Kobayashi, R. Kutteh, Z. Lin,
   R. Littlefield, X. Long, B. Meng, T. Nakajima, S. Niu, L. Pollack, M. Rosing,
   K. Glaesemann, G. Sandrone, M. Stave, H. Taylor, G. Thomas, J. H. van Lenthe,
                               A. T. Wong, Z. Zhang.

 Total times  cpu:      264.1s     wall:      264.5s
