 argument  1 = CH3I_GS.nw



============================== echo of input deck ==============================
echo

start molecule

title "Title"
charge 0

geometry units angstroms print xyz autosym
   I       -1.43431        2.42915       -0.35100
   C       -0.73026        0.47537        0.03393
   H       -1.08028       -0.22672       -0.72889
   H       -1.08028        0.11510        1.00606
   H        0.36353        0.44503        0.03991
end

basis
  * library def2-svpd
end

ecp
I library "def2-ecp"
end

dft
xc b3lyp
mult 1
end

driver
default
maxiter 99
xyz CH3I_GS
end

task dft optimize
================================================================================


                                         
                                         


             Northwest Computational Chemistry Package (NWChem) 7.2.2
             --------------------------------------------------------


                    Environmental Molecular Sciences Laboratory
                       Pacific Northwest National Laboratory
                                Richland, WA 99352

                              Copyright (c) 1994-2022
                       Pacific Northwest National Laboratory
                            Battelle Memorial Institute

             NWChem is an open-source computational chemistry package
                        distributed under the terms of the
                      Educational Community License (ECL) 2.0
             A copy of the license is included with this distribution
                              in the LICENSE.TXT file

                                  ACKNOWLEDGMENT
                                  --------------

            This software and its documentation were developed at the
            EMSL at Pacific Northwest National Laboratory, a multiprogram
            national laboratory, operated for the U.S. Department of Energy
            by Battelle under Contract Number DE-AC05-76RL01830. Support
            for this work was provided by the Department of Energy Office
            of Biological and Environmental Research, Office of Basic
            Energy Sciences, and the Office of Advanced Scientific Computing.


           Job information
           ---------------

    hostname        = iiserb-lab4
    program         = nwchem
    date            = Mon Jul  8 20:54:49 2024

    compiled        = Fri_Jun_07_08:00:10_2024
    source          = /home/conda/feedstock_root/build_artifacts/nwchem_1717738152402/work
    nwchem branch   = 7.2.2
    nwchem revision = 64ba0f0
    ga revision     = 5.8.0
    use scalapack   = T
    input           = CH3I_GS.nw
    prefix          = molecule.
    data base       = ./molecule.db
    status          = startup
    nproc           =        4
    time left       =     -1s



           Memory information
           ------------------

    heap     =   26214398 doubles =    200.0 Mbytes
    stack    =   26214395 doubles =    200.0 Mbytes
    global   =   52428800 doubles =    400.0 Mbytes (distinct from heap & stack)
    total    =  104857593 doubles =    800.0 Mbytes
    verify   = yes
    hardfail = no 


           Directory information
           ---------------------

  0 permanent = .
  0 scratch   = .




                                NWChem Input Module
                                -------------------


                                       Title
                                       -----

 Scaling coordinates for geometry "geometry" by  1.889725989
 (inverse scale =  0.529177249)

 C3V symmetry detected

          ------
          auto-z
          ------
  Looking for out-of-plane bends
  no constraints, skipping    0.0000000000000000     
  no constraints, skipping    0.0000000000000000     


                             Geometry "geometry" -> ""
                             -------------------------

 Output coordinates in angstroms (scale by  1.889725989 to convert to a.u.)

  No.       Tag          Charge          X              Y              Z
 ---- ---------------- ---------- -------------- -------------- --------------
    1 I                   53.0000     0.00000000     0.00000000     0.32565285
    2 C                    6.0000     0.00000000    -0.00000000    -1.78648204
    3 H                    1.0000     0.72190597     0.72190597    -2.18023635
    4 H                    1.0000    -0.98614190     0.26423592    -2.18023635
    5 H                    1.0000     0.26423592    -0.98614190    -2.18023635

      Atomic Mass 
      ----------- 

      I                126.900400
      C                 12.000000
      H                  1.007825


 Effective nuclear repulsion energy (a.u.)     120.3698289274

            Nuclear Dipole moment (a.u.) 
            ----------------------------
        X                 Y               Z
 ---------------- ---------------- ----------------
     0.0000000000     0.0000000000     0.0000000000

      Symmetry information
      --------------------

 Group name             C3v       
 Group number             17
 Group order               6
 No. of unique centers     3

      Symmetry unique atoms

     1    2    3



                                Z-matrix (autoz)
                                -------- 

 Units are Angstrom for bonds and degrees for angles

      Type          Name      I     J     K     L     M      Value
      ----------- --------  ----- ----- ----- ----- ----- ----------
    1 Stretch                  1     2                       2.11213
    2 Stretch                  2     3                       1.09423
    3 Stretch                  2     4                       1.09423
    4 Stretch                  2     5                       1.09423
    5 Bend                     1     2     3               111.09074
    6 Bend                     1     2     4               111.09074
    7 Bend                     1     2     5               111.09074
    8 Bend                     3     2     4               107.80427
    9 Bend                     3     2     5               107.80427
   10 Bend                     4     2     5               107.80427


            XYZ format geometry
            -------------------
     5
 geometry
 I                     0.00000000     0.00000000     0.32565285
 C                     0.00000000    -0.00000000    -1.78648204
 H                     0.72190597     0.72190597    -2.18023635
 H                    -0.98614190     0.26423592    -2.18023635
 H                     0.26423592    -0.98614190    -2.18023635

 ==============================================================================
                                internuclear distances
 ------------------------------------------------------------------------------
       center one      |      center two      | atomic units |  angstroms
 ------------------------------------------------------------------------------
    2 C                |   1 I                |     3.99136  |     2.11213
    3 H                |   2 C                |     2.06779  |     1.09423
    4 H                |   2 C                |     2.06779  |     1.09423
    5 H                |   2 C                |     2.06779  |     1.09423
 ------------------------------------------------------------------------------
                         number of included internuclear distances:          4
 ==============================================================================



 ==============================================================================
                                 internuclear angles
 ------------------------------------------------------------------------------
        center 1       |       center 2       |       center 3       |  degrees
 ------------------------------------------------------------------------------
    1 I                |   2 C                |   3 H                |   111.09
    1 I                |   2 C                |   4 H                |   111.09
    1 I                |   2 C                |   5 H                |   111.09
    3 H                |   2 C                |   4 H                |   107.80
    3 H                |   2 C                |   5 H                |   107.80
    4 H                |   2 C                |   5 H                |   107.80
 ------------------------------------------------------------------------------
                            number of included internuclear angles:          6
 ==============================================================================



  library name resolved from: environment
  library file name is: </home/iiserb/anaconda3/envs/chemstarx/share/nwchem/libraries/>
  


 Summary of "ao basis" -> "" (cartesian)
 ------------------------------------------------------------------------------
       Tag                 Description            Shells   Functions and Types
 ---------------- ------------------------------  ------  ---------------------
 *                         def2-svpd                  on all atoms 


  library name resolved from: environment
  library file name is: </home/iiserb/anaconda3/envs/chemstarx/share/nwchem/libraries/>
  
                 ECP       "ecp basis" -> "" (cartesian)
                -----
  I (Iodine) Replaces    28 electrons
  -----------------------------------
             Channel    R-exponent     Exponent     Coefficients
         ------------ ---------------------------------------------------------
  1 U L       Both         2.00       19.458609     -21.842040
  1 U L       Both         2.00       19.349260     -28.468191
  1 U L       Both         2.00        4.823767      -0.243713
  1 U L       Both         2.00        4.884315      -0.320804

  2 U-s       Both         2.00       40.015835      49.994293
  2 U-s       Both         2.00       17.429747     281.025317
  2 U-s       Both         2.00        9.005484      61.573326
  2 U-s       Both         2.00       19.458609      21.842040
  2 U-s       Both         2.00       19.349260      28.468191
  2 U-s       Both         2.00        4.823767       0.243713
  2 U-s       Both         2.00        4.884315       0.320804

  3 U-p       Both         2.00       15.355466      67.442841
  3 U-p       Both         2.00       14.971833     134.881137
  3 U-p       Both         2.00        8.960164      14.675051
  3 U-p       Both         2.00        8.259096      29.375666
  3 U-p       Both         2.00       19.458609      21.842040
  3 U-p       Both         2.00       19.349260      28.468191
  3 U-p       Both         2.00        4.823767       0.243713
  3 U-p       Both         2.00        4.884315       0.320804

  4 U-d       Both         2.00       15.068908      35.439529
  4 U-d       Both         2.00       14.555322      53.176057
  4 U-d       Both         2.00        6.718647       9.067195
  4 U-d       Both         2.00        6.456393      13.206937
  4 U-d       Both         2.00        1.191779       0.089335
  4 U-d       Both         2.00        1.291157       0.052380
  4 U-d       Both         2.00       19.458609      21.842040
  4 U-d       Both         2.00       19.349260      28.468191
  4 U-d       Both         2.00        4.823767       0.243713
  4 U-d       Both         2.00        4.884315       0.320804



                           NWChem Geometry Optimization
                           ----------------------------




                                       Title


  no constraints, skipping    0.0000000000000000     
 maximum gradient threshold         (gmax) =   0.000450
 rms gradient threshold             (grms) =   0.000300
 maximum cartesian step threshold   (xmax) =   0.001800
 rms cartesian step threshold       (xrms) =   0.001200
 fixed trust radius                (trust) =   0.300000
 maximum step size to saddle      (sadstp) =   0.100000
 energy precision                  (eprec) =   5.0D-06
 maximum number of steps          (nptopt) =   99
 initial hessian option           (inhess) =    0
 line search option               (linopt) =    1
 hessian update option            (modupd) =    1
 saddle point option              (modsad) =    0
 initial eigen-mode to follow     (moddir) =    0
 initial variable to follow       (vardir) =    0
 follow first negative mode     (firstneg) =    T
 apply conjugacy                    (opcg) =    F
 source of zmatrix                         =   autoz   


          -------------------
          Energy Minimization
          -------------------


 Names of Z-matrix variables 
    1              2              3              4              5         
    6              7              8              9             10         

 Variables with the same non-blank name are constrained to be equal


 Using diagonal initial Hessian 
 Scaling for Hessian diagonals: bonds = 1.00  angles = 0.25  torsions = 0.10

          --------
          Step   0
          --------


                         Geometry "geometry" -> "geometry"
                         ---------------------------------

 Output coordinates in angstroms (scale by  1.889725989 to convert to a.u.)

  No.       Tag          Charge          X              Y              Z
 ---- ---------------- ---------- -------------- -------------- --------------
    1 I                   53.0000     0.00000000     0.00000000     0.32565285
    2 C                    6.0000     0.00000000    -0.00000000    -1.78648204
    3 H                    1.0000     0.72190597     0.72190597    -2.18023635
    4 H                    1.0000    -0.98614190     0.26423592    -2.18023635
    5 H                    1.0000     0.26423592    -0.98614190    -2.18023635

      Atomic Mass 
      ----------- 

      I                126.900400
      C                 12.000000
      H                  1.007825


 Effective nuclear repulsion energy (a.u.)     120.3698289274

            Nuclear Dipole moment (a.u.) 
            ----------------------------
        X                 Y               Z
 ---------------- ---------------- ----------------
     0.0000000000     0.0000000000     0.0000000000

      Symmetry information
      --------------------

 Group name             C3v       
 Group number             17
 Group order               6
 No. of unique centers     3

      Symmetry unique atoms

     1    2    3


                                 NWChem DFT Module
                                 -----------------


                                       Title


                      Basis "ao basis" -> "ao basis" (cartesian)
                      -----
  I (Iodine)
  ----------
            Exponent  Coefficients 
       -------------- ---------------------------------------------------------
  1 S  4.45904892E+02  0.002004
  1 S  2.33368424E+01 -0.149894
  1 S  1.95834461E+01  0.364365
  1 S  8.51120892E+00 -0.755381
  1 S  2.19961619E+00  0.828164
  1 S  1.06689705E+00  0.421610

  2 S  1.17205476E+01 -0.016160
  2 S  1.76259864E+00  0.352715

  3 S  2.86974763E-01  1.000000

  4 S  1.12276096E-01  1.000000

  5 S  4.51236355E-02  1.000000

  6 P  2.04990273E+01  0.077159
  6 P  1.05587546E+01 -0.383704
  6 P  1.50158955E+00  0.835542
  6 P  6.45971731E-01  0.167873

  7 P  3.02886568E+00  1.000000

  8 P  3.45065918E-01  1.000000

  9 P  1.11345138E-01  1.000000

 10 P  2.97955072E-02  1.000000

 11 D  5.12353549E+01  0.004035
 11 D  1.56162395E+01 -0.005077
 11 D  4.52660021E+00  0.291511
 11 D  2.05298088E+00  0.511458
 11 D  8.76402816E-01  0.312320

 12 D  3.09000000E-01  1.000000

 13 D  7.79872552E-02  1.000000

  C (Carbon)
  ----------
            Exponent  Coefficients 
       -------------- ---------------------------------------------------------
  1 S  1.23840169E+03  0.005457
  1 S  1.86290050E+02  0.040638
  1 S  4.22511763E+01  0.180256
  1 S  1.16765579E+01  0.463151
  1 S  3.59305065E+00  0.440872

  2 S  4.02451474E-01  1.000000

  3 S  1.30901827E-01  1.000000

  4 S  6.70535403E-02  1.000000

  5 P  9.46809706E+00  0.038388
  5 P  2.01035451E+00  0.211170
  5 P  5.47710047E-01  0.513282

  6 P  1.52686138E-01  1.000000

  7 D  8.00000000E-01  1.000000

  8 D  1.17131851E-01  1.000000

  H (Hydrogen)
  ------------
            Exponent  Coefficients 
       -------------- ---------------------------------------------------------
  1 S  1.30107010E+01  0.019682
  1 S  1.96225720E+00  0.137965
  1 S  4.44537960E-01  0.478319

  2 S  1.21949620E-01  1.000000

  3 P  8.00000000E-01  1.000000

  4 P  1.17040991E-01  1.000000



 Summary of "ao basis" -> "ao basis" (cartesian)
 ------------------------------------------------------------------------------
       Tag                 Description            Shells   Functions and Types
 ---------------- ------------------------------  ------  ---------------------
 I                         def2-svpd                13       38   5s5p3d
 C                         def2-svpd                 8       22   4s2p2d
 H                         def2-svpd                 4        8   2s2p




 Summary of "ao basis" -> "ao basis" (cartesian)
 ------------------------------------------------------------------------------
       Tag                 Description            Shells   Functions and Types
 ---------------- ------------------------------  ------  ---------------------
 I                         def2-svpd                13       38   5s5p3d
 C                         def2-svpd                 8       22   4s2p2d
 H                         def2-svpd                 4        8   2s2p


      Symmetry analysis of basis
      --------------------------

        a1         32
        a2          2
        e          50

  Caching 1-el integrals 
  Rotation of axis 

            General Information
            -------------------
          SCF calculation type: DFT
          Wavefunction type:  closed shell.
          No. of atoms     :     5
          No. of electrons :    34
           Alpha electrons :    17
            Beta electrons :    17
          Charge           :     0
          Spin multiplicity:     1
          Use of symmetry is: on ; symmetry adaption is: on 
          Maximum number of iterations:  50
          AO basis - number of functions:    84
                     number of shells:    33
          Convergence on energy requested:  1.00D-06
          Convergence on density requested:  1.00D-05
          Convergence on gradient requested:  5.00D-04

              XC Information
              --------------
                         B3LYP Method XC Potential
                     Hartree-Fock (Exact) Exchange  0.200          
                        Slater Exchange Functional  0.800 local    
                    Becke 1988 Exchange Functional  0.720 non-local
              Lee-Yang-Parr Correlation Functional  0.810          
                  VWN I RPA Correlation Functional  0.190 local    

             Grid Information
             ----------------
          Grid used for XC integration:  medium    
          Radial quadrature: Mura-Knowles        
          Angular quadrature: Lebedev. 
          Tag              B.-S. Rad. Rad. Pts. Rad. Cut. Ang. Pts.
          ---              ---------- --------- --------- ---------
          I                   1.40      123          10.0       590
          C                   0.70       49          11.0       434
          H                   0.35       45          11.0       434
          Grid pruning is: on 
          Number of quadrature shells:   217
          Spatial weights used:  Erf1

          Convergence Information
          -----------------------
          Convergence aids based upon iterative change in 
          total energy or number of iterations. 
          Levelshifting, if invoked, occurs when the 
          HOMO/LUMO gap drops below (HL_TOL):  1.00D-02
          DIIS, if invoked, will attempt to extrapolate 
          using up to (NFOCK): 10 stored Fock matrices.

                    Damping( 0%)  Levelshifting(0.5)       DIIS
                  --------------- ------------------- ---------------
          dE  on:    start            ASAP                start   
          dE off:    2 iters         50 iters            50 iters 


      Screening Tolerance Information
      -------------------------------
          Density screening/tol_rho:  1.00D-10
          AO Gaussian exp screening on grid/accAOfunc:  14
          CD Gaussian exp screening on grid/accCDfunc:  20
          XC Gaussian exp screening on grid/accXCfunc:  20
          Schwarz screening/accCoul:  1.00D-08


      Superposition of Atomic Density Guess
      -------------------------------------

 Sum of atomic energies:        -386.24954537

      Non-variational initial energy
      ------------------------------

 Total energy =    -336.446175
 1-e energy   =    -691.990793
 2-e energy   =     293.693273
 HOMO         =      -0.326915
 LUMO         =      -0.015654


      Symmetry analysis of molecular orbitals - initial
      -------------------------------------------------

  Numbering of irreducible representations: 

     1 a1          2 a2          3 e       

  Orbital symmetries:

     1 a1          2 a1          3 a1          4 e           5 e       
     6 a1          7 e           8 e           9 e          10 e       
    11 a1         12 a1         13 e          14 e          15 a1      
    16 e          17 e          18 a1         19 a1         20 e       
    21 e          22 a1         23 a1         24 e          25 e       
    26 e          27 e       

  WARNING: movecs_in_org=atomic not equal to movecs_in=./molecule.movecs
   Time after variat. SCF:      0.4
   Time prior to 1st pass:      0.4

 Grid_pts file          = ./molecule.gridpts.0
 Record size in doubles =  12289        No. of grid_pts per rec  =   3070
 Max. records in memory =     13        Max. recs in file   = 253312716


           Memory utilization after 1st SCF pass: 
           Heap Space remaining (MW):        0.00                  54
          Stack Space remaining (MW):       26.21            26213812

   convergence    iter        energy       DeltaE   RMS-Dens  Diis-err    time
 ---------------- ----- ----------------- --------- --------- ---------  ------
 d= 0,ls=0.0,diis     1   -337.6565505454 -4.00D+02  1.34D-02  2.24D-01     1.0
 d= 0,ls=0.0,diis     2   -337.6548499050  1.70D-03  7.25D-03  1.74D-01     1.5
 d= 0,ls=0.0,diis     3   -337.6749659774 -2.01D-02  1.87D-03  3.55D-02     2.0
 d= 0,ls=0.0,diis     4   -337.6800821869 -5.12D-03  2.25D-04  1.17D-04     2.6
 d= 0,ls=0.0,diis     5   -337.6800940748 -1.19D-05  5.78D-05  1.18D-05     3.1
  Resetting Diis
 d= 0,ls=0.0,diis     6   -337.6800954326 -1.36D-06  8.42D-06  8.74D-08     3.6
 d= 0,ls=0.0,diis     7   -337.6800954486 -1.60D-08  1.53D-06  1.76D-09     4.2


         Total DFT energy =     -337.680095448610
      One electron energy =     -693.812239327896
           Coulomb energy =      323.114800150443
    Exchange-Corr. energy =      -28.834001420976
 Nuclear repulsion energy =       61.851345149819

 Numeric. integr. density =       33.999996760356

     Total iterative time =      3.7s



                  Occupations of the irreducible representations
                  ----------------------------------------------

                     irrep           alpha         beta
                     --------     --------     --------
                     a1                7.0          7.0
                     a2                0.0          0.0
                     e                10.0         10.0


                       DFT Final Molecular Orbital Analysis
                       ------------------------------------

 Vector    1  Occ=2.000000D+00  E=-1.024232D+01  Symmetry=a1
              MO Center=  3.2D-20,  1.1D-19, -1.8D+00, r^2= 2.8D-02
   Bfn.  Coefficient  Atom+Function         Bfn.  Coefficient  Atom+Function  
  ----- ------------  ---------------      ----- ------------  ---------------
    39      0.987333  2 C  s                 42     -0.076165  2 C  s          
    40      0.063561  2 C  s                 55      0.029079  2 C  dxx        
    58      0.029079  2 C  dyy               60      0.027259  2 C  dzz        
     5      0.025913  1 I  s          

 Vector    2  Occ=2.000000D+00  E=-6.841525D+00  Symmetry=a1
              MO Center= -1.5D-22, -1.0D-21,  3.2D-01, r^2= 1.8D-01
   Bfn.  Coefficient  Atom+Function         Bfn.  Coefficient  Atom+Function  
  ----- ------------  ---------------      ----- ------------  ---------------
     1      0.934531  1 I  s                  2      0.082825  1 I  s          
     3      0.034044  1 I  s          

 Vector    3  Occ=2.000000D+00  E=-4.868734D+00  Symmetry=a1
              MO Center= -6.6D-22, -1.5D-21,  3.3D-01, r^2= 2.0D-01
   Bfn.  Coefficient  Atom+Function         Bfn.  Coefficient  Atom+Function  
  ----- ------------  ---------------      ----- ------------  ---------------
     8      0.566514  1 I  pz                11      0.536624  1 I  pz         

 Vector    4  Occ=2.000000D+00  E=-4.853466D+00  Symmetry=e
              MO Center=  1.8D-06, -5.2D-06,  3.2D-01, r^2= 2.0D-01
   Bfn.  Coefficient  Atom+Function         Bfn.  Coefficient  Atom+Function  
  ----- ------------  ---------------      ----- ------------  ---------------
     7      0.551823  1 I  py                10      0.523333  1 I  py         
     6     -0.128459  1 I  px                 9     -0.121826  1 I  px         

 Vector    5  Occ=2.000000D+00  E=-4.853466D+00  Symmetry=e
              MO Center= -1.8D-06,  5.2D-06,  3.2D-01, r^2= 2.0D-01
   Bfn.  Coefficient  Atom+Function         Bfn.  Coefficient  Atom+Function  
  ----- ------------  ---------------      ----- ------------  ---------------
     6      0.551823  1 I  px                 9      0.523333  1 I  px         
     7      0.128459  1 I  py                10      0.121826  1 I  py         

 Vector    6  Occ=2.000000D+00  E=-1.916862D+00  Symmetry=a1
              MO Center=  8.8D-17,  1.6D-16,  3.3D-01, r^2= 2.8D-01
   Bfn.  Coefficient  Atom+Function         Bfn.  Coefficient  Atom+Function  
  ----- ------------  ---------------      ----- ------------  ---------------
    26      0.979456  1 I  dzz               21     -0.488672  1 I  dxx        
    24     -0.488672  1 I  dyy               41     -0.134345  2 C  s          
    32      0.054592  1 I  dzz                4      0.042807  1 I  s          
    62      0.040435  3 H  s                 70      0.040435  4 H  s          
    78      0.040435  5 H  s                 42      0.034269  2 C  s          

 Vector    7  Occ=2.000000D+00  E=-1.911880D+00  Symmetry=e
              MO Center= -6.7D-06, -7.8D-06,  3.3D-01, r^2= 2.8D-01
   Bfn.  Coefficient  Atom+Function         Bfn.  Coefficient  Atom+Function  
  ----- ------------  ---------------      ----- ------------  ---------------
    23      1.241513  1 I  dxz               25      1.157291  1 I  dyz        
    29      0.068864  1 I  dxz               31      0.064192  1 I  dyz        

 Vector    8  Occ=2.000000D+00  E=-1.911880D+00  Symmetry=e
              MO Center=  6.7D-06,  7.8D-06,  3.3D-01, r^2= 2.8D-01
   Bfn.  Coefficient  Atom+Function         Bfn.  Coefficient  Atom+Function  
  ----- ------------  ---------------      ----- ------------  ---------------
    25     -1.241513  1 I  dyz               23      1.157291  1 I  dxz        
    31     -0.068864  1 I  dyz               29      0.064192  1 I  dxz        

 Vector    9  Occ=2.000000D+00  E=-1.898977D+00  Symmetry=e
              MO Center= -2.5D-06,  1.4D-08,  3.3D-01, r^2= 2.8D-01
   Bfn.  Coefficient  Atom+Function         Bfn.  Coefficient  Atom+Function  
  ----- ------------  ---------------      ----- ------------  ---------------
    21      0.783681  1 I  dxx               24     -0.783681  1 I  dyy        
    22     -0.654308  1 I  dxy               27      0.041484  1 I  dxx        
    30     -0.041484  1 I  dyy               28     -0.034636  1 I  dxy        

 Vector   10  Occ=2.000000D+00  E=-1.898977D+00  Symmetry=e
              MO Center=  2.5D-06, -1.4D-08,  3.3D-01, r^2= 2.8D-01
   Bfn.  Coefficient  Atom+Function         Bfn.  Coefficient  Atom+Function  
  ----- ------------  ---------------      ----- ------------  ---------------
    22      1.567362  1 I  dxy               21      0.327154  1 I  dxx        
    24     -0.327154  1 I  dyy               28      0.082968  1 I  dxy        

 Vector   11  Occ=2.000000D+00  E=-7.572887D-01  Symmetry=a1
              MO Center= -4.5D-16, -8.3D-16, -1.0D+00, r^2= 1.8D+00
   Bfn.  Coefficient  Atom+Function         Bfn.  Coefficient  Atom+Function  
  ----- ------------  ---------------      ----- ------------  ---------------
     3      0.536371  1 I  s                 40      0.387326  2 C  s          
    41      0.380343  2 C  s                  1     -0.266318  1 I  s          
     2     -0.224816  1 I  s                 42     -0.194285  2 C  s          
    39     -0.191308  2 C  s                 61      0.131711  3 H  s          
    69      0.131711  4 H  s                 77      0.131711  5 H  s          

 Vector   12  Occ=2.000000D+00  E=-6.469268D-01  Symmetry=a1
              MO Center= -3.0D-16,  2.4D-16, -7.1D-01, r^2= 2.8D+00
   Bfn.  Coefficient  Atom+Function         Bfn.  Coefficient  Atom+Function  
  ----- ------------  ---------------      ----- ------------  ---------------
     3      0.674574  1 I  s                 41     -0.623155  2 C  s          
     4      0.407770  1 I  s                  1     -0.333177  1 I  s          
    40     -0.317092  2 C  s                  2     -0.290015  1 I  s          
    42      0.234056  2 C  s                 61     -0.153039  3 H  s          
    69     -0.153039  4 H  s                 77     -0.153039  5 H  s          

 Vector   13  Occ=2.000000D+00  E=-4.366748D-01  Symmetry=e
              MO Center= -2.2D-01,  1.8D-02, -1.9D+00, r^2= 1.4D+00
   Bfn.  Coefficient  Atom+Function         Bfn.  Coefficient  Atom+Function  
  ----- ------------  ---------------      ----- ------------  ---------------
    43      0.422258  2 C  px                69     -0.353500  4 H  s          
    77      0.203957  5 H  s                 46      0.179943  2 C  px         
    44     -0.154345  2 C  py                61      0.149543  3 H  s          
    12      0.102204  1 I  px                57      0.071218  2 C  dxz        
    47     -0.065773  2 C  py                70     -0.057882  4 H  s          

 Vector   14  Occ=2.000000D+00  E=-4.366748D-01  Symmetry=e
              MO Center=  2.2D-01, -1.8D-02, -1.9D+00, r^2= 1.4D+00
   Bfn.  Coefficient  Atom+Function         Bfn.  Coefficient  Atom+Function  
  ----- ------------  ---------------      ----- ------------  ---------------
    44      0.422258  2 C  py                61      0.321848  3 H  s          
    77     -0.290433  5 H  s                 47      0.179943  2 C  py         
    43      0.154345  2 C  px                13      0.102204  1 I  py         
    59      0.071218  2 C  dyz               46      0.065773  2 C  px         
    62      0.052699  3 H  s                 16      0.050363  1 I  py         

 Vector   15  Occ=2.000000D+00  E=-3.723249D-01  Symmetry=a1
              MO Center=  1.9D-15, -6.0D-15, -4.9D-01, r^2= 2.7D+00
   Bfn.  Coefficient  Atom+Function         Bfn.  Coefficient  Atom+Function  
  ----- ------------  ---------------      ----- ------------  ---------------
    41      0.524403  2 C  s                 14      0.471389  1 I  pz         
    45     -0.385026  2 C  pz                17      0.302047  1 I  pz         
    48     -0.264518  2 C  pz                11     -0.190509  1 I  pz         
    62     -0.191362  3 H  s                 70     -0.191362  4 H  s          
    78     -0.191362  5 H  s                  3      0.174148  1 I  s          

 Vector   16  Occ=2.000000D+00  E=-2.605163D-01  Symmetry=e
              MO Center= -4.6D-03,  1.0D-02,  2.2D-01, r^2= 2.3D+00
   Bfn.  Coefficient  Atom+Function         Bfn.  Coefficient  Atom+Function  
  ----- ------------  ---------------      ----- ------------  ---------------
    12      0.603319  1 I  px                15      0.500488  1 I  px         
     9     -0.241911  1 I  px                 6     -0.195849  1 I  px         
    13      0.110129  1 I  py                69      0.106894  4 H  s          
    70      0.105456  4 H  s                 43     -0.099057  2 C  px         
    61     -0.097295  3 H  s                 62     -0.095985  3 H  s          

 Vector   17  Occ=2.000000D+00  E=-2.605163D-01  Symmetry=e
              MO Center=  4.6D-03, -1.0D-02,  2.2D-01, r^2= 2.3D+00
   Bfn.  Coefficient  Atom+Function         Bfn.  Coefficient  Atom+Function  
  ----- ------------  ---------------      ----- ------------  ---------------
    13      0.603319  1 I  py                16      0.500488  1 I  py         
    10     -0.241911  1 I  py                 7     -0.195849  1 I  py         
    77      0.117889  5 H  s                 78      0.116302  5 H  s          
    12     -0.110129  1 I  px                44     -0.099057  2 C  py         
    15     -0.091358  1 I  px                61     -0.067258  3 H  s          

 Vector   18  Occ=0.000000D+00  E=-4.208187D-02  Symmetry=a1
              MO Center=  1.5D-16, -1.7D-17, -2.9D-01, r^2= 5.9D+00
   Bfn.  Coefficient  Atom+Function         Bfn.  Coefficient  Atom+Function  
  ----- ------------  ---------------      ----- ------------  ---------------
    41      0.773268  2 C  s                 42     -0.547105  2 C  s          
    17      0.540181  1 I  pz                20      0.369201  1 I  pz         
    14      0.327615  1 I  pz                45      0.322303  2 C  pz         
    40      0.312532  2 C  s                 48      0.287671  2 C  pz         
     5     -0.254856  1 I  s                  4     -0.212568  1 I  s          

 Vector   19  Occ=0.000000D+00  E= 1.860249D-03  Symmetry=a1
              MO Center=  1.0D-13, -3.9D-14, -1.3D-01, r^2= 1.1D+01
   Bfn.  Coefficient  Atom+Function         Bfn.  Coefficient  Atom+Function  
  ----- ------------  ---------------      ----- ------------  ---------------
     5      5.967472  1 I  s                  4     -2.661249  1 I  s          
    33     -1.314949  1 I  dxx               36     -1.314949  1 I  dyy        
    38     -1.268360  1 I  dzz               41     -0.439413  2 C  s          
     3     -0.414741  1 I  s                 42      0.374268  2 C  s          
    60     -0.191290  2 C  dzz               20     -0.139266  1 I  pz         

 Vector   20  Occ=0.000000D+00  E= 3.996834D-02  Symmetry=e
              MO Center= -9.2D-02,  8.8D-02,  2.0D-02, r^2= 1.4D+01
   Bfn.  Coefficient  Atom+Function         Bfn.  Coefficient  Atom+Function  
  ----- ------------  ---------------      ----- ------------  ---------------
    18      1.125254  1 I  px                70      0.658845  4 H  s          
    62     -0.476191  3 H  s                 15     -0.325923  1 I  px         
    74      0.287037  4 H  px                66      0.202236  3 H  px         
    56      0.191905  2 C  dxy               76      0.188113  4 H  pz         
    78     -0.182655  5 H  s                 46      0.172592  2 C  px         

 Vector   21  Occ=0.000000D+00  E= 3.996834D-02  Symmetry=e
              MO Center=  9.2D-02, -8.8D-02,  2.0D-02, r^2= 1.4D+01
   Bfn.  Coefficient  Atom+Function         Bfn.  Coefficient  Atom+Function  
  ----- ------------  ---------------      ----- ------------  ---------------
    19      1.125254  1 I  py                78      0.655313  5 H  s          
    62     -0.485840  3 H  s                 16     -0.325923  1 I  py         
    83      0.286072  5 H  py                67      0.204167  3 H  py         
    56      0.195794  2 C  dxy               84      0.187105  5 H  pz         
    47      0.172592  2 C  py                70     -0.169473  4 H  s          

 Vector   22  Occ=0.000000D+00  E= 4.805920D-02  Symmetry=a1
              MO Center=  1.5D-14,  5.7D-14,  7.3D-01, r^2= 1.4D+01
   Bfn.  Coefficient  Atom+Function         Bfn.  Coefficient  Atom+Function  
  ----- ------------  ---------------      ----- ------------  ---------------
    20      1.455596  1 I  pz                41      1.333729  2 C  s          
    38     -0.891434  1 I  dzz                4     -0.827621  1 I  s          
     5      0.721836  1 I  s                 42      0.651220  2 C  s          
    62     -0.520131  3 H  s                 70     -0.520131  4 H  s          
    78     -0.520131  5 H  s                 60      0.470169  2 C  dzz        

 Vector   23  Occ=0.000000D+00  E= 7.444940D-02  Symmetry=a1
              MO Center=  2.8D-14,  1.7D-15, -9.3D-01, r^2= 1.4D+01
   Bfn.  Coefficient  Atom+Function         Bfn.  Coefficient  Atom+Function  
  ----- ------------  ---------------      ----- ------------  ---------------
    42      9.693912  2 C  s                 41     -6.120571  2 C  s          
     5     -4.768110  1 I  s                  4      2.017591  1 I  s          
    55     -1.611470  2 C  dxx               58     -1.611470  2 C  dyy        
    20      1.565092  1 I  pz                60     -1.543392  2 C  dzz        
    38      0.962372  1 I  dzz               62      0.571975  3 H  s          

 Vector   24  Occ=0.000000D+00  E= 8.859448D-02  Symmetry=e
              MO Center= -3.0D-02,  8.1D-02, -7.5D-01, r^2= 6.8D+00
   Bfn.  Coefficient  Atom+Function         Bfn.  Coefficient  Atom+Function  
  ----- ------------  ---------------      ----- ------------  ---------------
    34      0.572030  1 I  dxy               83      0.502849  5 H  py         
    33      0.447488  1 I  dxx               36     -0.447488  1 I  dyy        
    66      0.355609  3 H  px                59     -0.300319  2 C  dyz        
    74     -0.293311  4 H  px                19     -0.268719  1 I  py         
    78      0.236828  5 H  s                 16      0.232479  1 I  py         

 Vector   25  Occ=0.000000D+00  E= 8.859448D-02  Symmetry=e
              MO Center=  3.0D-02, -8.1D-02, -7.5D-01, r^2= 6.8D+00
   Bfn.  Coefficient  Atom+Function         Bfn.  Coefficient  Atom+Function  
  ----- ------------  ---------------      ----- ------------  ---------------
    34      0.894977  1 I  dxy               74      0.418353  4 H  px         
    67      0.412050  3 H  py                57     -0.300319  2 C  dxz        
    33     -0.286015  1 I  dxx               36      0.286015  1 I  dyy        
    18     -0.268719  1 I  px                82     -0.246459  5 H  px         
    75     -0.236870  4 H  py                15      0.232479  1 I  px         

 Vector   26  Occ=0.000000D+00  E= 1.180145D-01  Symmetry=e
              MO Center=  8.6D-02, -1.5D-01, -2.4D-01, r^2= 9.0D+00
   Bfn.  Coefficient  Atom+Function         Bfn.  Coefficient  Atom+Function  
  ----- ------------  ---------------      ----- ------------  ---------------
    78      2.368336  5 H  s                 37     -1.544832  1 I  dyz        
    62     -1.446483  3 H  s                 83      1.141648  5 H  py         
    70     -0.921853  4 H  s                 67      0.801170  3 H  py         
    75      0.590063  4 H  py                47      0.494924  2 C  py         
    56      0.426575  2 C  dxy               84      0.416910  5 H  pz         

 Vector   27  Occ=0.000000D+00  E= 1.180145D-01  Symmetry=e
              MO Center= -8.6D-02,  1.5D-01, -2.4D-01, r^2= 9.0D+00
   Bfn.  Coefficient  Atom+Function         Bfn.  Coefficient  Atom+Function  
  ----- ------------  ---------------      ----- ------------  ---------------
    70      2.202487  4 H  s                 62     -1.899592  3 H  s          
    35     -1.544832  1 I  dxz               74      1.098524  4 H  px         
    66      0.887418  3 H  px                56      0.560200  2 C  dxy        
    82      0.546939  5 H  px                46      0.494924  2 C  px         
    67      0.432788  3 H  py                76      0.387715  4 H  pz         

 Vector   28  Occ=0.000000D+00  E= 1.339195D-01  Symmetry=e
              MO Center= -3.1D-01, -1.7D-01, -8.9D-01, r^2= 7.5D+00
   Bfn.  Coefficient  Atom+Function         Bfn.  Coefficient  Atom+Function  
  ----- ------------  ---------------      ----- ------------  ---------------
    35      0.751960  1 I  dxz               37     -0.564499  1 I  dyz        
    76      0.530061  4 H  pz                84     -0.449526  5 H  pz         
    33      0.421803  1 I  dxx               36     -0.421803  1 I  dyy        
    66      0.355282  3 H  px                82      0.354084  5 H  px         
    18     -0.346740  1 I  px                55     -0.344805  2 C  dxx        

 Vector   29  Occ=0.000000D+00  E= 1.339195D-01  Symmetry=e
              MO Center=  3.1D-01,  1.7D-01, -8.9D-01, r^2= 7.5D+00
   Bfn.  Coefficient  Atom+Function         Bfn.  Coefficient  Atom+Function  
  ----- ------------  ---------------      ----- ------------  ---------------
    34      0.843605  1 I  dxy               37     -0.751960  1 I  dyz        
    56     -0.689610  2 C  dxy               35     -0.564499  1 I  dxz        
    68      0.565565  3 H  pz                75     -0.357543  4 H  py         
    84     -0.352528  5 H  pz                83     -0.349563  5 H  py         
    19      0.346740  1 I  py                67     -0.348365  3 H  py         

 Vector   30  Occ=0.000000D+00  E= 1.680067D-01  Symmetry=a1
              MO Center= -2.8D-15, -1.1D-13, -1.2D+00, r^2= 1.1D+01
   Bfn.  Coefficient  Atom+Function         Bfn.  Coefficient  Atom+Function  
  ----- ------------  ---------------      ----- ------------  ---------------
     5     11.026910  1 I  s                  4     -4.449052  1 I  s          
    42     -3.129243  2 C  s                 33     -2.844232  1 I  dxx        
    36     -2.844232  1 I  dyy               38     -2.301423  1 I  dzz        
    20     -1.318626  1 I  pz                48      0.535499  2 C  pz         
    41     -0.492289  2 C  s                 62      0.454367  3 H  s          

 Vector   31  Occ=0.000000D+00  E= 1.880608D-01  Symmetry=e
              MO Center=  2.4D-01, -3.8D-01, -1.6D+00, r^2= 7.1D+00
   Bfn.  Coefficient  Atom+Function         Bfn.  Coefficient  Atom+Function  
  ----- ------------  ---------------      ----- ------------  ---------------
    82      1.184130  5 H  px                57      0.978330  2 C  dxz        
    34      0.784765  1 I  dxy               67     -0.650384  3 H  py         
    35      0.638222  1 I  dxz               56      0.631867  2 C  dxy        
    76      0.607475  4 H  pz                68     -0.511402  3 H  pz         
    75      0.486540  4 H  py                66      0.446218  3 H  px         

 Vector   32  Occ=0.000000D+00  E= 1.880608D-01  Symmetry=e
              MO Center= -2.4D-01,  3.8D-01, -1.6D+00, r^2= 7.1D+00
   Bfn.  Coefficient  Atom+Function         Bfn.  Coefficient  Atom+Function  
  ----- ------------  ---------------      ----- ------------  ---------------
    75      1.102622  4 H  py                59      0.978330  2 C  dyz        
    66     -0.771398  3 H  px                84      0.645984  5 H  pz         
    37      0.638222  1 I  dyz               34      0.623320  1 I  dxy        
    67      0.609234  3 H  py                56      0.501877  2 C  dxy        
    68     -0.406194  3 H  pz                33      0.392382  1 I  dxx        

 Vector   33  Occ=0.000000D+00  E= 1.980596D-01  Symmetry=a1
              MO Center=  5.2D-15, -8.5D-14, -2.0D-01, r^2= 1.2D+01
   Bfn.  Coefficient  Atom+Function         Bfn.  Coefficient  Atom+Function  
  ----- ------------  ---------------      ----- ------------  ---------------
     5      9.892605  1 I  s                 41      6.479601  2 C  s          
     4     -3.928695  1 I  s                 33     -3.225987  1 I  dxx        
    36     -3.225987  1 I  dyy               42     -3.219037  2 C  s          
    38     -3.169935  1 I  dzz               62     -1.669988  3 H  s          
    70     -1.669988  4 H  s                 78     -1.669988  5 H  s          

 Vector   34  Occ=0.000000D+00  E= 2.262867D-01  Symmetry=a1
              MO Center=  6.7D-16,  7.8D-15,  1.4D+00, r^2= 8.6D+00
   Bfn.  Coefficient  Atom+Function         Bfn.  Coefficient  Atom+Function  
  ----- ------------  ---------------      ----- ------------  ---------------
    41      5.622005  2 C  s                 42      3.683282  2 C  s          
    38     -3.089904  1 I  dzz               17      2.373408  1 I  pz         
     4     -2.352619  1 I  s                 62     -1.797998  3 H  s          
    70     -1.797998  4 H  s                 78     -1.797998  5 H  s          
    20      1.564185  1 I  pz                60      0.952430  2 C  dzz        

 Vector   35  Occ=0.000000D+00  E= 2.816906D-01  Symmetry=a1
              MO Center= -5.6D-14, -6.3D-14, -1.7D+00, r^2= 1.0D+01
   Bfn.  Coefficient  Atom+Function         Bfn.  Coefficient  Atom+Function  
  ----- ------------  ---------------      ----- ------------  ---------------
    41     23.996055  2 C  s                 42    -16.968300  2 C  s          
    62     -4.553198  3 H  s                 70     -4.553198  4 H  s          
    78     -4.553198  5 H  s                 60      3.932995  2 C  dzz        
    55      3.791047  2 C  dxx               58      3.791047  2 C  dyy        
    74     -2.169075  4 H  px                83     -2.169075  5 H  py         

 Vector   36  Occ=0.000000D+00  E= 3.138296D-01  Symmetry=e
              MO Center=  4.9D-02,  2.4D-01, -1.2D+00, r^2= 8.8D+00
   Bfn.  Coefficient  Atom+Function         Bfn.  Coefficient  Atom+Function  
  ----- ------------  ---------------      ----- ------------  ---------------
    62      3.086706  3 H  s                 70     -2.344135  4 H  s          
    68      1.763130  3 H  pz                56     -1.612123  2 C  dxy        
    35      1.534581  1 I  dxz               46     -1.463017  2 C  px         
    76     -1.338973  4 H  pz                37      0.827106  1 I  dyz        
    47     -0.788535  2 C  py                78     -0.742571  5 H  s          

 Vector   37  Occ=0.000000D+00  E= 3.138296D-01  Symmetry=e
              MO Center= -4.9D-02, -2.4D-01, -1.2D+00, r^2= 8.8D+00
   Bfn.  Coefficient  Atom+Function         Bfn.  Coefficient  Atom+Function  
  ----- ------------  ---------------      ----- ------------  ---------------
    78      3.135498  5 H  s                 70     -2.210834  4 H  s          
    84      1.791000  5 H  pz                37     -1.534581  1 I  dyz        
    47      1.463017  2 C  py                76     -1.262831  4 H  pz         
    62     -0.924664  3 H  s                 35      0.827106  1 I  dxz        
    55      0.806061  2 C  dxx               58     -0.806061  2 C  dyy        

 Vector   38  Occ=0.000000D+00  E= 3.377109D-01  Symmetry=a2
              MO Center=  1.1D-12,  2.0D-12, -2.2D+00, r^2= 5.9D+00
   Bfn.  Coefficient  Atom+Function         Bfn.  Coefficient  Atom+Function  
  ----- ------------  ---------------      ----- ------------  ---------------
    75      1.489870  4 H  py                82     -1.489870  5 H  px         
    66      1.090661  3 H  px                67     -1.090661  3 H  py         
    74      0.399210  4 H  px                83     -0.399210  5 H  py         

 Vector   39  Occ=0.000000D+00  E= 3.402042D-01  Symmetry=e
              MO Center= -4.5D-01, -1.7D-01, -2.0D+00, r^2= 6.4D+00
   Bfn.  Coefficient  Atom+Function         Bfn.  Coefficient  Atom+Function  
  ----- ------------  ---------------      ----- ------------  ---------------
    70      3.609597  4 H  s                 78     -2.813506  5 H  s          
    74      2.346705  4 H  px                46      2.242142  2 C  px         
    83     -1.868980  5 H  py                47     -1.449619  2 C  py         
    57      1.360299  2 C  dxz               76      1.309153  4 H  pz         
    84     -1.020422  5 H  pz                59     -0.879479  2 C  dyz        

 Vector   40  Occ=0.000000D+00  E= 3.402042D-01  Symmetry=e
              MO Center=  4.5D-01,  1.7D-01, -2.0D+00, r^2= 6.4D+00
   Bfn.  Coefficient  Atom+Function         Bfn.  Coefficient  Atom+Function  
  ----- ------------  ---------------      ----- ------------  ---------------
    62      3.708380  3 H  s                 78     -2.543625  5 H  s          
    47     -2.242142  2 C  py                66     -1.796556  3 H  px         
    67     -1.690617  3 H  py                83     -1.565175  5 H  py         
    46     -1.449619  2 C  px                59     -1.360299  2 C  dyz        
    68      1.344981  3 H  pz                56      1.291253  2 C  dxy        

 Vector   41  Occ=0.000000D+00  E= 3.623966D-01  Symmetry=a1
              MO Center=  5.9D-14, -7.9D-14, -2.3D+00, r^2= 7.7D+00
   Bfn.  Coefficient  Atom+Function         Bfn.  Coefficient  Atom+Function  
  ----- ------------  ---------------      ----- ------------  ---------------
    41     10.166555  2 C  s                 42      8.292095  2 C  s          
     5     -6.123127  1 I  s                 62     -4.929290  3 H  s          
    70     -4.929290  4 H  s                 78     -4.929290  5 H  s          
     4      2.925948  1 I  s                 74     -1.938299  4 H  px         
    83     -1.938299  5 H  py                48     -1.802843  2 C  pz         

 Vector   42  Occ=0.000000D+00  E= 3.962253D-01  Symmetry=e
              MO Center=  3.3D-01, -1.4D-01, -8.0D-01, r^2= 6.8D+00
   Bfn.  Coefficient  Atom+Function         Bfn.  Coefficient  Atom+Function  
  ----- ------------  ---------------      ----- ------------  ---------------
    59      5.515729  2 C  dyz               78     -5.232504  5 H  s          
    62      4.789862  3 H  s                 47     -2.373999  2 C  py         
    83     -2.090369  5 H  py                37      1.930691  1 I  dyz        
    66     -1.909413  3 H  px                16     -1.495775  1 I  py         
    56      1.488871  2 C  dxy               84      1.332116  5 H  pz         

 Vector   43  Occ=0.000000D+00  E= 3.962253D-01  Symmetry=e
              MO Center= -3.3D-01,  1.4D-01, -8.0D-01, r^2= 6.8D+00
   Bfn.  Coefficient  Atom+Function         Bfn.  Coefficient  Atom+Function  
  ----- ------------  ---------------      ----- ------------  ---------------
    70     -5.786416  4 H  s                 57      5.515729  2 C  dxz        
    62      3.276547  3 H  s                 78      2.509868  5 H  s          
    74     -2.423239  4 H  px                46     -2.373999  2 C  px         
    35      1.930691  1 I  dxz               67     -1.639177  3 H  py         
    15     -1.495775  1 I  px                76      1.473133  4 H  pz         

 Vector   44  Occ=0.000000D+00  E= 4.110318D-01  Symmetry=e
              MO Center= -9.9D-02,  2.7D-01, -1.6D+00, r^2= 6.7D+00
   Bfn.  Coefficient  Atom+Function         Bfn.  Coefficient  Atom+Function  
  ----- ------------  ---------------      ----- ------------  ---------------
    78     10.889261  5 H  s                 62     -5.881401  3 H  s          
    70     -5.007859  4 H  s                 56      3.914867  2 C  dxy        
    47      3.133808  2 C  py                75      3.097276  4 H  py         
    55      3.054669  2 C  dxx               58     -3.054669  2 C  dyy        
    67      2.984892  3 H  py                83      2.735229  5 H  py         

 Vector   45  Occ=0.000000D+00  E= 4.110318D-01  Symmetry=e
              MO Center=  9.9D-02, -2.7D-01, -1.6D+00, r^2= 6.7D+00
   Bfn.  Coefficient  Atom+Function         Bfn.  Coefficient  Atom+Function  
  ----- ------------  ---------------      ----- ------------  ---------------
    70     -9.682546  4 H  s                 62      9.178207  3 H  s          
    56     -6.109337  2 C  dxy               46     -3.133808  2 C  px         
    82     -3.143035  5 H  px                66     -2.893373  3 H  px         
    74     -2.780989  4 H  px                55      1.957434  2 C  dxx        
    58     -1.957434  2 C  dyy               76     -0.981104  4 H  pz         

 Vector   46  Occ=0.000000D+00  E= 4.125716D-01  Symmetry=a1
              MO Center= -2.5D-13, -3.2D-13, -2.0D+00, r^2= 6.0D+00
   Bfn.  Coefficient  Atom+Function         Bfn.  Coefficient  Atom+Function  
  ----- ------------  ---------------      ----- ------------  ---------------
    41      9.939086  2 C  s                 42     -5.089355  2 C  s          
    62     -3.959821  3 H  s                 70     -3.959821  4 H  s          
    78     -3.959821  5 H  s                  4      3.171087  1 I  s          
    55      2.954707  2 C  dxx               58      2.954707  2 C  dyy        
    60     -2.888286  2 C  dzz               68     -2.360544  3 H  pz         

 Vector   47  Occ=0.000000D+00  E= 5.070869D-01  Symmetry=a1
              MO Center=  9.1D-14, -1.4D-15, -1.4D+00, r^2= 6.9D+00
   Bfn.  Coefficient  Atom+Function         Bfn.  Coefficient  Atom+Function  
  ----- ------------  ---------------      ----- ------------  ---------------
    41     63.016330  2 C  s                 62    -21.141451  3 H  s          
    70    -21.141451  4 H  s                 78    -21.141451  5 H  s          
    42    -16.245258  2 C  s                 55     10.410652  2 C  dxx        
    58     10.410652  2 C  dyy               60      8.218923  2 C  dzz        
     4     -6.099365  1 I  s                 74     -5.251694  4 H  px         

 Vector   48  Occ=0.000000D+00  E= 5.483725D-01  Symmetry=e
              MO Center=  3.5D-03, -1.7D-02, -6.7D-02, r^2= 5.4D+00
   Bfn.  Coefficient  Atom+Function         Bfn.  Coefficient  Atom+Function  
  ----- ------------  ---------------      ----- ------------  ---------------
    78      2.814156  5 H  s                 16      1.827650  1 I  py         
    70     -1.481614  4 H  s                 13     -1.431909  1 I  py         
    62     -1.332542  3 H  s                 84      1.034657  5 H  pz         
    56      0.928445  2 C  dxy               55      0.864024  2 C  dxx        
    58     -0.864024  2 C  dyy               37     -0.846627  1 I  dyz        

 Vector   49  Occ=0.000000D+00  E= 5.483725D-01  Symmetry=e
              MO Center= -3.5D-03,  1.7D-02, -6.7D-02, r^2= 5.4D+00
   Bfn.  Coefficient  Atom+Function         Bfn.  Coefficient  Atom+Function  
  ----- ------------  ---------------      ----- ------------  ---------------
    62      2.480164  3 H  s                 70     -2.394097  4 H  s          
    15     -1.827650  1 I  px                56     -1.728047  2 C  dxy        
    12      1.431909  1 I  px                68      0.911861  3 H  pz         
    76     -0.880218  4 H  pz                35      0.846627  1 I  dxz        
    82     -0.621729  5 H  px                46     -0.572092  2 C  px         

 Vector   50  Occ=0.000000D+00  E= 6.058925D-01  Symmetry=a1
              MO Center= -1.7D-14, -7.1D-16, -2.8D-01, r^2= 6.7D+00
   Bfn.  Coefficient  Atom+Function         Bfn.  Coefficient  Atom+Function  
  ----- ------------  ---------------      ----- ------------  ---------------
     5     11.479128  1 I  s                 42     -7.948036  2 C  s          
    41      5.595465  2 C  s                 33     -3.992119  1 I  dxx        
    36     -3.992119  1 I  dyy                3     -3.526197  1 I  s          
    38     -2.532801  1 I  dzz                4      1.866721  1 I  s          
    17     -1.649298  1 I  pz                55      1.399021  2 C  dxx        

 Vector   51  Occ=0.000000D+00  E= 6.245237D-01  Symmetry=e
              MO Center= -3.6D-02,  1.0D-02,  5.1D-02, r^2= 3.7D+00
   Bfn.  Coefficient  Atom+Function         Bfn.  Coefficient  Atom+Function  
  ----- ------------  ---------------      ----- ------------  ---------------
    78     -2.504999  5 H  s                 62      2.478463  3 H  s          
    56     -2.217918  2 C  dxy               28      1.723482  1 I  dxy        
    75     -1.152134  4 H  py                34     -0.764648  1 I  dxy        
    55     -0.653968  2 C  dxx               58      0.653968  2 C  dyy        
    67     -0.650292  3 H  py                22     -0.602658  1 I  dxy        

 Vector   52  Occ=0.000000D+00  E= 6.245237D-01  Symmetry=e
              MO Center=  3.6D-02, -1.0D-02,  5.1D-02, r^2= 3.7D+00
   Bfn.  Coefficient  Atom+Function         Bfn.  Coefficient  Atom+Function  
  ----- ------------  ---------------      ----- ------------  ---------------
    70      2.877203  4 H  s                 62     -1.461582  3 H  s          
    78     -1.415621  5 H  s                 56      1.307935  2 C  dxy        
    55     -1.108959  2 C  dxx               58      1.108959  2 C  dyy        
    82      1.048780  5 H  px                28     -1.016360  1 I  dxy        
    27      0.861741  1 I  dxx               30     -0.861741  1 I  dyy        

 Vector   53  Occ=0.000000D+00  E= 6.845547D-01  Symmetry=a1
              MO Center= -7.3D-15,  3.0D-16,  8.5D-01, r^2= 5.8D+00
   Bfn.  Coefficient  Atom+Function         Bfn.  Coefficient  Atom+Function  
  ----- ------------  ---------------      ----- ------------  ---------------
    42     -6.997956  2 C  s                 41      6.632457  2 C  s          
     5     -4.475434  1 I  s                 38      4.089513  1 I  dzz        
    17     -3.520926  1 I  pz                62     -2.170046  3 H  s          
    70     -2.170046  4 H  s                 78     -2.170046  5 H  s          
    33      2.117766  1 I  dxx               36      2.117766  1 I  dyy        

 Vector   54  Occ=0.000000D+00  E= 7.201605D-01  Symmetry=e
              MO Center=  5.9D-02, -2.3D-01, -9.5D-01, r^2= 5.1D+00
   Bfn.  Coefficient  Atom+Function         Bfn.  Coefficient  Atom+Function  
  ----- ------------  ---------------      ----- ------------  ---------------
    57      5.459535  2 C  dxz               62      2.138304  3 H  s          
    70     -2.122032  4 H  s                 46     -1.977905  2 C  px         
    29      1.801549  1 I  dxz               68     -1.560314  3 H  pz         
    76      1.548441  4 H  pz                59      1.501657  2 C  dyz        
    15     -1.274312  1 I  px                82      1.128405  5 H  px         

 Vector   55  Occ=0.000000D+00  E= 7.201605D-01  Symmetry=e
              MO Center= -5.9D-02,  2.3D-01, -9.5D-01, r^2= 5.1D+00
   Bfn.  Coefficient  Atom+Function         Bfn.  Coefficient  Atom+Function  
  ----- ------------  ---------------      ----- ------------  ---------------
    59      5.459535  2 C  dyz               78     -2.459706  5 H  s          
    47     -1.977905  2 C  py                31      1.801549  1 I  dyz        
    84      1.794841  5 H  pz                57     -1.501657  2 C  dxz        
    16     -1.274312  1 I  py                70      1.243945  4 H  s          
    62      1.215761  3 H  s                 66     -1.070780  3 H  px         

 Vector   56  Occ=0.000000D+00  E= 8.437557D-01  Symmetry=e
              MO Center= -3.7D-01, -2.2D-01, -1.7D+00, r^2= 4.1D+00
   Bfn.  Coefficient  Atom+Function         Bfn.  Coefficient  Atom+Function  
  ----- ------------  ---------------      ----- ------------  ---------------
    70      6.018766  4 H  s                 78     -5.180261  5 H  s          
    74      2.490455  4 H  px                83     -2.122081  5 H  py         
    46      1.619109  2 C  px                47     -1.247373  2 C  py         
    69     -0.973789  4 H  s                 62     -0.838505  3 H  s          
    77      0.838126  5 H  s                 75     -0.786511  4 H  py         

 Vector   57  Occ=0.000000D+00  E= 8.437557D-01  Symmetry=e
              MO Center=  3.7D-01,  2.2D-01, -1.7D+00, r^2= 4.1D+00
   Bfn.  Coefficient  Atom+Function         Bfn.  Coefficient  Atom+Function  
  ----- ------------  ---------------      ----- ------------  ---------------
    62      6.465762  3 H  s                 78     -3.959047  5 H  s          
    70     -2.506714  4 H  s                 67     -2.009206  3 H  py         
    66     -1.954740  3 H  px                83     -1.719364  5 H  py         
    47     -1.619109  2 C  py                46     -1.247373  2 C  px         
    74     -1.121192  4 H  px                61     -1.046110  3 H  s          

 Vector   58  Occ=0.000000D+00  E= 8.483005D-01  Symmetry=a1
              MO Center= -5.3D-13, -4.2D-14, -9.7D-01, r^2= 5.3D+00
   Bfn.  Coefficient  Atom+Function         Bfn.  Coefficient  Atom+Function  
  ----- ------------  ---------------      ----- ------------  ---------------
    41     25.664933  2 C  s                  4     -9.138893  1 I  s          
    62     -7.423345  3 H  s                 70     -7.423345  4 H  s          
    78     -7.423345  5 H  s                 42     -5.957714  2 C  s          
    60      5.723159  2 C  dzz               17      5.589352  1 I  pz         
    55      3.427598  2 C  dxx               58      3.427598  2 C  dyy        

 Vector   59  Occ=0.000000D+00  E= 8.674368D-01  Symmetry=a1
              MO Center=  2.1D-13,  2.3D-13, -1.2D+00, r^2= 4.2D+00
   Bfn.  Coefficient  Atom+Function         Bfn.  Coefficient  Atom+Function  
  ----- ------------  ---------------      ----- ------------  ---------------
    41      4.740290  2 C  s                 62     -2.464438  3 H  s          
    70     -2.464438  4 H  s                 78     -2.464438  5 H  s          
    42      2.365252  2 C  s                  4      2.022722  1 I  s          
    17     -1.882439  1 I  pz                40     -1.274543  2 C  s          
    14      0.986666  1 I  pz                60     -0.960292  2 C  dzz        

 Vector   60  Occ=0.000000D+00  E= 9.794068D-01  Symmetry=e
              MO Center= -2.2D-02,  8.7D-03, -1.5D+00, r^2= 3.8D+00
   Bfn.  Coefficient  Atom+Function         Bfn.  Coefficient  Atom+Function  
  ----- ------------  ---------------      ----- ------------  ---------------
    78    -11.126671  5 H  s                 62     10.453588  3 H  s          
    47     -7.372570  2 C  py                56     -3.464923  2 C  dxy        
    83     -2.669544  5 H  py                67     -2.111120  3 H  py         
    84     -1.627826  5 H  pz                46     -1.554687  2 C  px         
    68      1.529355  3 H  pz                66     -1.415854  3 H  px         

 Vector   61  Occ=0.000000D+00  E= 9.794068D-01  Symmetry=e
              MO Center=  2.2D-02, -8.7D-03, -1.5D+00, r^2= 3.8D+00
   Bfn.  Coefficient  Atom+Function         Bfn.  Coefficient  Atom+Function  
  ----- ------------  ---------------      ----- ------------  ---------------
    70     12.459368  4 H  s                 46      7.372570  2 C  px         
    62     -6.812591  3 H  s                 78     -5.646777  5 H  s          
    74      2.883760  4 H  px                56      2.258086  2 C  dxy        
    76      1.822799  4 H  pz                55     -1.732462  2 C  dxx        
    58      1.732462  2 C  dyy               66      1.682688  3 H  px         

 Vector   62  Occ=0.000000D+00  E= 9.901218D-01  Symmetry=a1
              MO Center=  8.9D-13,  2.6D-12, -2.1D+00, r^2= 4.3D+00
   Bfn.  Coefficient  Atom+Function         Bfn.  Coefficient  Atom+Function  
  ----- ------------  ---------------      ----- ------------  ---------------
    41     41.507772  2 C  s                 62    -16.359126  3 H  s          
    70    -16.359126  4 H  s                 78    -16.359126  5 H  s          
    48     -5.613717  2 C  pz                 4     -3.940148  1 I  s          
    55      3.921858  2 C  dxx               58      3.921858  2 C  dyy        
    74     -3.865417  4 H  px                83     -3.865417  5 H  py         

 Vector   63  Occ=0.000000D+00  E= 1.225914D+00  Symmetry=a1
              MO Center=  2.6D-15, -9.1D-14, -1.6D+00, r^2= 3.7D+00
   Bfn.  Coefficient  Atom+Function         Bfn.  Coefficient  Atom+Function  
  ----- ------------  ---------------      ----- ------------  ---------------
    41     28.325718  2 C  s                 42    -13.256595  2 C  s          
    62    -11.121667  3 H  s                 70    -11.121667  4 H  s          
    78    -11.121667  5 H  s                 55      7.801817  2 C  dxx        
    58      7.801817  2 C  dyy               60      7.318305  2 C  dzz        
     4     -4.613141  1 I  s                  5      3.743572  1 I  s          

 Vector   64  Occ=0.000000D+00  E= 1.537121D+00  Symmetry=e
              MO Center= -8.5D-03, -1.1D-01, -1.9D+00, r^2= 2.2D+00
   Bfn.  Coefficient  Atom+Function         Bfn.  Coefficient  Atom+Function  
  ----- ------------  ---------------      ----- ------------  ---------------
    59      3.525627  2 C  dyz               57     -1.624777  2 C  dxz        
    55      1.381197  2 C  dxx               58     -1.381197  2 C  dyy        
    66     -1.056637  3 H  px                56      1.019512  2 C  dxy        
    75      1.003451  4 H  py                84      0.975861  5 H  pz         
    16     -0.864722  1 I  py                67      0.856597  3 H  py         

 Vector   65  Occ=0.000000D+00  E= 1.537121D+00  Symmetry=e
              MO Center=  8.5D-03,  1.1D-01, -1.9D+00, r^2= 2.2D+00
   Bfn.  Coefficient  Atom+Function         Bfn.  Coefficient  Atom+Function  
  ----- ------------  ---------------      ----- ------------  ---------------
    57      3.525627  2 C  dxz               56      2.762395  2 C  dxy        
    59      1.624777  2 C  dyz               82      1.390725  5 H  px         
    75      0.971850  4 H  py                68     -0.928897  3 H  pz         
    15     -0.864722  1 I  px                46     -0.803268  2 C  px         
    76      0.761344  4 H  pz                51     -0.727003  2 C  dxz        

 Vector   66  Occ=0.000000D+00  E= 1.645701D+00  Symmetry=a2
              MO Center=  8.6D-15,  5.1D-15, -2.2D+00, r^2= 1.9D+00
   Bfn.  Coefficient  Atom+Function         Bfn.  Coefficient  Atom+Function  
  ----- ------------  ---------------      ----- ------------  ---------------
    72      0.607432  4 H  py                79     -0.607432  5 H  px         
    75     -0.503877  4 H  py                82      0.503877  5 H  px         
    63      0.444671  3 H  px                64     -0.444671  3 H  py         
    66     -0.368864  3 H  px                67      0.368864  3 H  py         
    71      0.162761  4 H  px                80     -0.162761  5 H  py         

 Vector   67  Occ=0.000000D+00  E= 1.758603D+00  Symmetry=a1
              MO Center= -1.2D-14,  1.5D-14, -7.3D-01, r^2= 3.7D+00
   Bfn.  Coefficient  Atom+Function         Bfn.  Coefficient  Atom+Function  
  ----- ------------  ---------------      ----- ------------  ---------------
     4      7.489411  1 I  s                 41     -6.156666  2 C  s          
     5      4.747650  1 I  s                 27     -2.618063  1 I  dxx        
    30     -2.618063  1 I  dyy               17     -2.335436  1 I  pz         
    33     -2.111677  1 I  dxx               36     -2.111677  1 I  dyy        
    62      2.087542  3 H  s                 70      2.087542  4 H  s          

 Vector   68  Occ=0.000000D+00  E= 1.814194D+00  Symmetry=e
              MO Center=  1.3D-01, -1.3D-02, -2.1D+00, r^2= 1.9D+00
   Bfn.  Coefficient  Atom+Function         Bfn.  Coefficient  Atom+Function  
  ----- ------------  ---------------      ----- ------------  ---------------
    62      4.007349  3 H  s                 78     -3.649132  5 H  s          
    47     -3.125702  2 C  py                59      1.295530  2 C  dyz        
    83     -1.133209  5 H  py                46     -1.115035  2 C  px         
    67     -0.926994  3 H  py                66     -0.874529  3 H  px         
    56     -0.704622  2 C  dxy               64      0.518933  3 H  py         

 Vector   69  Occ=0.000000D+00  E= 1.814194D+00  Symmetry=e
              MO Center= -1.3D-01,  1.3D-02, -2.1D+00, r^2= 1.9D+00
   Bfn.  Coefficient  Atom+Function         Bfn.  Coefficient  Atom+Function  
  ----- ------------  ---------------      ----- ------------  ---------------
    70      4.420471  4 H  s                 46      3.125702  2 C  px         
    78     -2.520461  5 H  s                 62     -1.900011  3 H  s          
    74      1.355502  4 H  px                57     -1.295530  2 C  dxz        
    47     -1.115035  2 C  py                83     -0.755470  5 H  py         
    63     -0.519232  3 H  px                71     -0.518644  4 H  px         

 Vector   70  Occ=0.000000D+00  E= 1.965882D+00  Symmetry=e
              MO Center=  1.7D-02, -2.4D-01, -2.0D+00, r^2= 1.5D+00
   Bfn.  Coefficient  Atom+Function         Bfn.  Coefficient  Atom+Function  
  ----- ------------  ---------------      ----- ------------  ---------------
    78      2.731732  5 H  s                 70     -1.593685  4 H  s          
    62     -1.138047  3 H  s                 47      0.796592  2 C  py         
    53      0.788425  2 C  dyz               83      0.674264  5 H  py         
    81      0.613915  5 H  pz                59     -0.559069  2 C  dyz        
    67      0.515246  3 H  py                75      0.481234  4 H  py         

 Vector   71  Occ=0.000000D+00  E= 1.965882D+00  Symmetry=e
              MO Center= -1.7D-02,  2.4D-01, -2.0D+00, r^2= 1.5D+00
   Bfn.  Coefficient  Atom+Function         Bfn.  Coefficient  Atom+Function  
  ----- ------------  ---------------      ----- ------------  ---------------
    62      2.497280  3 H  s                 70     -2.234218  4 H  s          
    46     -0.796592  2 C  px                51     -0.788425  2 C  dxz        
    56     -0.778390  2 C  dxy               74     -0.632595  4 H  px         
    66     -0.598583  3 H  px                57      0.559069  2 C  dxz        
    65      0.561225  3 H  pz                73     -0.502106  4 H  pz         

 Vector   72  Occ=0.000000D+00  E= 2.015096D+00  Symmetry=a1
              MO Center= -1.4D-14,  4.8D-14, -7.0D-01, r^2= 3.9D+00
   Bfn.  Coefficient  Atom+Function         Bfn.  Coefficient  Atom+Function  
  ----- ------------  ---------------      ----- ------------  ---------------
     5      5.101626  1 I  s                 32     -2.886836  1 I  dzz        
    41     -2.884263  2 C  s                  4      2.459840  1 I  s          
    38     -2.340352  1 I  dzz               48      2.155780  2 C  pz         
    27     -2.136547  1 I  dxx               30     -2.136547  1 I  dyy        
    33     -2.064960  1 I  dxx               36     -2.064960  1 I  dyy        

 Vector   73  Occ=0.000000D+00  E= 2.287355D+00  Symmetry=a1
              MO Center=  2.1D-14,  2.8D-14, -2.1D+00, r^2= 1.6D+00
   Bfn.  Coefficient  Atom+Function         Bfn.  Coefficient  Atom+Function  
  ----- ------------  ---------------      ----- ------------  ---------------
    41     13.004637  2 C  s                 62     -5.196167  3 H  s          
    70     -5.196167  4 H  s                 78     -5.196167  5 H  s          
    42     -2.646912  2 C  s                 48     -2.401050  2 C  pz         
    55      2.180452  2 C  dxx               58      2.180452  2 C  dyy        
    74     -1.052192  4 H  px                83     -1.052192  5 H  py         

 Vector   74  Occ=0.000000D+00  E= 2.469516D+00  Symmetry=e
              MO Center= -1.3D-01, -4.0D-02, -2.0D+00, r^2= 1.3D+00
   Bfn.  Coefficient  Atom+Function         Bfn.  Coefficient  Atom+Function  
  ----- ------------  ---------------      ----- ------------  ---------------
    62      2.822175  3 H  s                 78     -2.016990  5 H  s          
    47     -1.485117  2 C  py                50      1.278177  2 C  dxy        
    53      0.948443  2 C  dyz               46     -0.895057  2 C  px         
    70     -0.805186  4 H  s                 59      0.786802  2 C  dyz        
    72      0.725382  4 H  py                51      0.571612  2 C  dxz        

 Vector   75  Occ=0.000000D+00  E= 2.469516D+00  Symmetry=e
              MO Center=  1.3D-01,  4.0D-02, -2.0D+00, r^2= 1.3D+00
   Bfn.  Coefficient  Atom+Function         Bfn.  Coefficient  Atom+Function  
  ----- ------------  ---------------      ----- ------------  ---------------
    70      2.793893  4 H  s                 78     -2.094258  5 H  s          
    46      1.485117  2 C  px                51     -0.948443  2 C  dxz        
    47     -0.895057  2 C  py                57     -0.786802  2 C  dxz        
    62     -0.699635  3 H  s                 74      0.691508  4 H  px         
    49      0.639089  2 C  dxx               52     -0.639089  2 C  dyy        

 Vector   76  Occ=0.000000D+00  E= 2.708838D+00  Symmetry=a1
              MO Center=  1.2D-14, -3.0D-14, -2.1D+00, r^2= 1.7D+00
   Bfn.  Coefficient  Atom+Function         Bfn.  Coefficient  Atom+Function  
  ----- ------------  ---------------      ----- ------------  ---------------
    41      8.768824  2 C  s                 62     -3.953106  3 H  s          
    70     -3.953106  4 H  s                 78     -3.953106  5 H  s          
    42      2.643930  2 C  s                 48     -1.876956  2 C  pz         
     5     -1.482049  1 I  s                 40      0.926010  2 C  s          
    71     -0.868591  4 H  px                80     -0.868591  5 H  py         

 Vector   77  Occ=0.000000D+00  E= 3.016583D+00  Symmetry=e
              MO Center=  3.7D-02, -1.8D-01, -1.9D+00, r^2= 1.4D+00
   Bfn.  Coefficient  Atom+Function         Bfn.  Coefficient  Atom+Function  
  ----- ------------  ---------------      ----- ------------  ---------------
    78      4.829769  5 H  s                 47      3.252094  2 C  py         
    70     -2.527801  4 H  s                 62     -2.301968  3 H  s          
    53     -1.522997  2 C  dyz               77      1.303654  5 H  s          
    83      1.184831  5 H  py                80      1.098523  5 H  py         
    46     -0.966179  2 C  px                50      0.896942  2 C  dxy        

 Vector   78  Occ=0.000000D+00  E= 3.016583D+00  Symmetry=e
              MO Center= -3.7D-02,  1.8D-01, -1.9D+00, r^2= 1.4D+00
   Bfn.  Coefficient  Atom+Function         Bfn.  Coefficient  Atom+Function  
  ----- ------------  ---------------      ----- ------------  ---------------
    62      4.247895  3 H  s                 70     -4.117510  4 H  s          
    46     -3.252094  2 C  px                50     -1.655156  2 C  dxy        
    51      1.522997  2 C  dxz               61      1.146594  3 H  s          
    69     -1.111401  4 H  s                 74     -1.030125  4 H  px         
    47     -0.966179  2 C  py                56     -0.930348  2 C  dxy        

 Vector   79  Occ=0.000000D+00  E= 5.223064D+00  Symmetry=a1
              MO Center=  2.3D-15, -1.5D-15, -1.8D+00, r^2= 6.1D-01
   Bfn.  Coefficient  Atom+Function         Bfn.  Coefficient  Atom+Function  
  ----- ------------  ---------------      ----- ------------  ---------------
    40      3.732350  2 C  s                 41     -3.107119  2 C  s          
    42      2.406566  2 C  s                 49     -2.103996  2 C  dxx        
    52     -2.103996  2 C  dyy               54     -1.870206  2 C  dzz        
    55     -1.081410  2 C  dxx               58     -1.081410  2 C  dyy        
    62      1.056469  3 H  s                 70      1.056469  4 H  s          

 Vector   80  Occ=0.000000D+00  E= 1.704778D+01  Symmetry=a1
              MO Center= -2.8D-15,  5.1D-15,  3.5D-01, r^2= 1.9D+00
   Bfn.  Coefficient  Atom+Function         Bfn.  Coefficient  Atom+Function  
  ----- ------------  ---------------      ----- ------------  ---------------
     3     12.511078  1 I  s                  1     11.802479  1 I  s          
    21     -9.202934  1 I  dxx               24     -9.202934  1 I  dyy        
    26     -9.201037  1 I  dzz                4      6.486657  1 I  s          
     5      6.122544  1 I  s                 27     -5.579518  1 I  dxx        
    30     -5.579518  1 I  dyy               32     -5.559929  1 I  dzz        

 Vector   81  Occ=0.000000D+00  E= 1.886551D+01  Symmetry=e
              MO Center=  9.0D-04,  1.0D-03,  3.2D-01, r^2= 4.6D-01
   Bfn.  Coefficient  Atom+Function         Bfn.  Coefficient  Atom+Function  
  ----- ------------  ---------------      ----- ------------  ---------------
    62      1.421532  3 H  s                  6     -1.191835  1 I  px         
     7     -1.102653  1 I  py                 9      0.848144  1 I  px         
    10      0.784680  1 I  py                12      0.766084  1 I  px         
    70     -0.758616  4 H  s                 13      0.708760  1 I  py         
    78     -0.662916  5 H  s                 46     -0.494167  2 C  px         

 Vector   82  Occ=0.000000D+00  E= 1.886551D+01  Symmetry=e
              MO Center= -9.0D-04, -1.0D-03,  3.2D-01, r^2= 4.6D-01
   Bfn.  Coefficient  Atom+Function         Bfn.  Coefficient  Atom+Function  
  ----- ------------  ---------------      ----- ------------  ---------------
    78      1.258709  5 H  s                 70     -1.203457  4 H  s          
     7      1.191835  1 I  py                 6     -1.102653  1 I  px         
    10     -0.848144  1 I  py                 9      0.784680  1 I  px         
    13     -0.766084  1 I  py                12      0.708760  1 I  px         
    47      0.494167  2 C  py                46     -0.457190  2 C  px         

 Vector   83  Occ=0.000000D+00  E= 1.955646D+01  Symmetry=a1
              MO Center=  1.0D-15, -1.8D-15,  3.2D-01, r^2= 5.0D-01
   Bfn.  Coefficient  Atom+Function         Bfn.  Coefficient  Atom+Function  
  ----- ------------  ---------------      ----- ------------  ---------------
    41      4.109379  2 C  s                 62     -1.693977  3 H  s          
    70     -1.693977  4 H  s                 78     -1.693977  5 H  s          
     8      1.676316  1 I  pz                 4     -1.347516  1 I  s          
    17      1.331504  1 I  pz                14     -1.303895  1 I  pz         
    11     -1.141137  1 I  pz                 3     -0.981295  1 I  s          

 Vector   84  Occ=0.000000D+00  E= 6.112071D+01  Symmetry=a1
              MO Center=  1.0D-17,  3.7D-17,  3.3D-01, r^2= 4.9D-02
   Bfn.  Coefficient  Atom+Function         Bfn.  Coefficient  Atom+Function  
  ----- ------------  ---------------      ----- ------------  ---------------
     1      5.759505  1 I  s                  2     -2.647831  1 I  s          
     3      2.309647  1 I  s                 21     -2.229877  1 I  dxx        
    24     -2.229877  1 I  dyy               26     -2.229724  1 I  dzz        
    27     -0.674359  1 I  dxx               30     -0.674359  1 I  dyy        
    32     -0.673477  1 I  dzz                4      0.558484  1 I  s          


 center of mass
 --------------
 x =   0.00000000 y =   0.00000000 z =   0.17703451

 moments of inertia (a.u.)
 ------------------
         237.325605111542          -0.000000000000           0.000000000000
          -0.000000000000         237.325605111542           0.000000000000
           0.000000000000           0.000000000000          11.253699594576

     Multipole analysis of the density
     ---------------------------------

     L   x y z        total         alpha         beta         nuclear
     -   - - -        -----         -----         ----         -------
     0   0 0 0     -0.000000    -17.000000    -17.000000     34.000000

     1   1 0 0     -0.000000     -0.000000     -0.000000      0.000000
     1   0 1 0     -0.000000     -0.000000     -0.000000      0.000000
[...]
           0.000000000000         247.055518684580           0.000000000000
           0.000000000000           0.000000000000          11.736797016869

     Multipole analysis of the density
     ---------------------------------

     L   x y z        total         alpha         beta         nuclear
     -   - - -        -----         -----         ----         -------
     0   0 0 0      0.000000    -17.000000    -17.000000     34.000000

     1   1 0 0     -0.000000     -0.000000     -0.000000      0.000000
     1   0 1 0     -0.000000     -0.000000     -0.000000     -0.000000
     1   0 0 1     -0.666518      8.286434      8.286434    -17.239386

     2   2 0 0    -26.082150    -15.952492    -15.952492      5.822835
     2   1 1 0     -0.000000     -0.000000     -0.000000      0.000000
     2   1 0 1     -0.000000     -0.000000     -0.000000      0.000000
     2   0 2 0    -26.082150    -15.952492    -15.952492      5.822835
     2   0 1 1      0.000000      0.000000      0.000000      0.000000
     2   0 0 2    -22.042154    -77.300389    -77.300389    132.558624

 Line search: 
     step= 1.00 grad=-1.1D-08 hess= 3.7D-09 energy=   -337.681604 mode=accept  
 new step= 1.00                   predicted energy=   -337.681604
  no constraints, skipping    0.0000000000000000     
  no constraints, skipping    0.0000000000000000     
  no constraints, skipping    0.0000000000000000     

          --------
          Step   4
          --------


                         Geometry "geometry" -> "geometry"
                         ---------------------------------

 Output coordinates in angstroms (scale by  1.889725989 to convert to a.u.)

  No.       Tag          Charge          X              Y              Z
 ---- ---------------- ---------- -------------- -------------- --------------
    1 I                   53.0000    -0.00000000     0.00000000     0.33566236
    2 C                    6.0000     0.00000000     0.00000000    -1.83540985
    3 H                    1.0000     0.73723810     0.73723810    -2.16726358
    4 H                    1.0000    -1.00708598     0.26984787    -2.16726358
    5 H                    1.0000     0.26984787    -1.00708598    -2.16726358

      Atomic Mass 
      ----------- 

      I                126.900400
      C                 12.000000
      H                  1.007825


 Effective nuclear repulsion energy (a.u.)     118.1256517951

            Nuclear Dipole moment (a.u.) 
            ----------------------------
        X                 Y               Z
 ---------------- ---------------- ----------------
     0.0000000000    -0.0000000000     0.5212905133

      Symmetry information
      --------------------

 Group name             C3v       
 Group number             17
 Group order               6
 No. of unique centers     3

      Symmetry unique atoms

     1    2    3


                                 NWChem DFT Module
                                 -----------------


                                       Title




 Summary of "ao basis" -> "ao basis" (cartesian)
 ------------------------------------------------------------------------------
       Tag                 Description            Shells   Functions and Types
 ---------------- ------------------------------  ------  ---------------------
 I                         def2-svpd                13       38   5s5p3d
 C                         def2-svpd                 8       22   4s2p2d
 H                         def2-svpd                 4        8   2s2p


      Symmetry analysis of basis
      --------------------------

        a1         32
        a2          2
        e          50


  The DFT is already converged 

         Total DFT energy =   -337.681604193461


            General Information
            -------------------
          SCF calculation type: DFT
          Wavefunction type:  closed shell.
          No. of atoms     :     5
          No. of electrons :    34
           Alpha electrons :    17
            Beta electrons :    17
          Charge           :     0
          Spin multiplicity:     1
          Use of symmetry is: on ; symmetry adaption is: on 
          Maximum number of iterations:  50
          AO basis - number of functions:    84
                     number of shells:    33
          Convergence on energy requested:  1.00D-06
          Convergence on density requested:  1.00D-05
          Convergence on gradient requested:  5.00D-04

              XC Information
              --------------
                         B3LYP Method XC Potential
                     Hartree-Fock (Exact) Exchange  0.200          
                        Slater Exchange Functional  0.800 local    
                    Becke 1988 Exchange Functional  0.720 non-local
              Lee-Yang-Parr Correlation Functional  0.810          
                  VWN I RPA Correlation Functional  0.190 local    

             Grid Information
             ----------------
          Grid used for XC integration:  medium    
          Radial quadrature: Mura-Knowles        
          Angular quadrature: Lebedev. 
          Tag              B.-S. Rad. Rad. Pts. Rad. Cut. Ang. Pts.
          ---              ---------- --------- --------- ---------
          I                   1.40      123          10.0       590
          C                   0.70       49          11.0       434
          H                   0.35       45          11.0       434
          Grid pruning is: on 
          Number of quadrature shells:   217
          Spatial weights used:  Erf1

          Convergence Information
          -----------------------
          Convergence aids based upon iterative change in 
          total energy or number of iterations. 
          Levelshifting, if invoked, occurs when the 
          HOMO/LUMO gap drops below (HL_TOL):  1.00D-02
          DIIS, if invoked, will attempt to extrapolate 
          using up to (NFOCK): 10 stored Fock matrices.

                    Damping( 0%)  Levelshifting(0.5)       DIIS
                  --------------- ------------------- ---------------
          dE  on:    start            ASAP                start   
          dE off:    2 iters         50 iters            50 iters 


      Screening Tolerance Information
      -------------------------------
          Density screening/tol_rho:  1.00D-10
          AO Gaussian exp screening on grid/accAOfunc:  14
          CD Gaussian exp screening on grid/accCDfunc:  20
          XC Gaussian exp screening on grid/accXCfunc:  20
          Schwarz screening/accCoul:  1.00D-08



                            NWChem DFT Gradient Module
                            --------------------------


                                       Title



  charge          =   0.00
  wavefunction    = closed shell

  Rotation of axis 
  Using symmetry


                         DFT ENERGY GRADIENTS

    atom               coordinates                        gradient
                 x          y          z           x          y          z
   1 I      -0.000000   0.000000   0.634310   -0.000000   0.000000  -0.000002
   2 C       0.000000   0.000000  -3.468422   -0.000000   0.000000   0.000014
   3 H       1.393178   1.393178  -4.095534    0.000001   0.000001  -0.000004
   4 H      -1.903117   0.509939  -4.095534   -0.000001   0.000000  -0.000004
   5 H       0.509939  -1.903117  -4.095534    0.000000  -0.000001  -0.000004

                 ----------------------------------------
                 |  Time  |  1-e(secs)   |  2-e(secs)   |
                 ----------------------------------------
                 |  CPU   |       0.01   |       2.18   |
                 ----------------------------------------
                 |  WALL  |       0.01   |       2.19   |
                 ----------------------------------------
  no constraints, skipping    0.0000000000000000     

  Step       Energy      Delta E   Gmax     Grms     Xrms     Xmax   Walltime
  ---- ---------------- -------- -------- -------- -------- -------- --------
@    4    -337.68160419 -7.0D-09  0.00000  0.00000  0.00004  0.00011     34.6
                                     ok       ok       ok       ok  



                                Z-matrix (autoz)
                                -------- 

 Units are Angstrom for bonds and degrees for angles

      Type          Name      I     J     K     L     M      Value     Gradient
      ----------- --------  ----- ----- ----- ----- ----- ---------- ----------
    1 Stretch                  1     2                       2.17107   -0.00000
    2 Stretch                  2     3                       1.09415    0.00000
    3 Stretch                  2     4                       1.09415    0.00000
    4 Stretch                  2     5                       1.09415    0.00000
    5 Bend                     1     2     3               107.65579    0.00000
    6 Bend                     1     2     4               107.65579    0.00000
    7 Bend                     1     2     5               107.65579    0.00000
    8 Bend                     3     2     4               111.22403   -0.00000
    9 Bend                     3     2     5               111.22403   -0.00000
   10 Bend                     4     2     5               111.22403   -0.00000


      ----------------------
      Optimization converged
      ----------------------


  Step       Energy      Delta E   Gmax     Grms     Xrms     Xmax   Walltime
  ---- ---------------- -------- -------- -------- -------- -------- --------
@    4    -337.68160419 -7.0D-09  0.00000  0.00000  0.00004  0.00011     34.6
                                     ok       ok       ok       ok  



                                Z-matrix (autoz)
                                -------- 

 Units are Angstrom for bonds and degrees for angles

      Type          Name      I     J     K     L     M      Value     Gradient
      ----------- --------  ----- ----- ----- ----- ----- ---------- ----------
    1 Stretch                  1     2                       2.17107   -0.00000
    2 Stretch                  2     3                       1.09415    0.00000
    3 Stretch                  2     4                       1.09415    0.00000
    4 Stretch                  2     5                       1.09415    0.00000
    5 Bend                     1     2     3               107.65579    0.00000
    6 Bend                     1     2     4               107.65579    0.00000
    7 Bend                     1     2     5               107.65579    0.00000
    8 Bend                     3     2     4               111.22403   -0.00000
    9 Bend                     3     2     5               111.22403   -0.00000
   10 Bend                     4     2     5               111.22403   -0.00000



                         Geometry "geometry" -> "geometry"
                         ---------------------------------

 Output coordinates in angstroms (scale by  1.889725989 to convert to a.u.)

  No.       Tag          Charge          X              Y              Z
 ---- ---------------- ---------- -------------- -------------- --------------
    1 I                   53.0000    -0.00000000     0.00000000     0.33566236
    2 C                    6.0000     0.00000000     0.00000000    -1.83540985
    3 H                    1.0000     0.73723810     0.73723810    -2.16726358
    4 H                    1.0000    -1.00708598     0.26984787    -2.16726358
    5 H                    1.0000     0.26984787    -1.00708598    -2.16726358

      Atomic Mass 
      ----------- 

      I                126.900400
      C                 12.000000
      H                  1.007825


 Effective nuclear repulsion energy (a.u.)     118.1256517951

            Nuclear Dipole moment (a.u.) 
            ----------------------------
        X                 Y               Z
 ---------------- ---------------- ----------------
     0.0000000000    -0.0000000000     0.5212905133

      Symmetry information
      --------------------

 Group name             C3v       
 Group number             17
 Group order               6
 No. of unique centers     3

      Symmetry unique atoms

     1    2    3


                Final and change from initial internal coordinates
                --------------------------------------------------



                                Z-matrix (autoz)
                                -------- 

 Units are Angstrom for bonds and degrees for angles

      Type          Name      I     J     K     L     M      Value       Change
      ----------- --------  ----- ----- ----- ----- ----- ---------- ----------
    1 Stretch                  1     2                       2.17107    0.05894
    2 Stretch                  2     3                       1.09415   -0.00008
    3 Stretch                  2     4                       1.09415   -0.00008
    4 Stretch                  2     5                       1.09415   -0.00008
    5 Bend                     1     2     3               107.65579   -3.43496
    6 Bend                     1     2     4               107.65579   -3.43496
    7 Bend                     1     2     5               107.65579   -3.43496
    8 Bend                     3     2     4               111.22403    3.41977
    9 Bend                     3     2     5               111.22403    3.41977
   10 Bend                     4     2     5               111.22403    3.41977

 ==============================================================================
                                internuclear distances
 ------------------------------------------------------------------------------
       center one      |      center two      | atomic units |  angstroms
 ------------------------------------------------------------------------------
    2 C                |   1 I                |     4.10273  |     2.17107
    3 H                |   2 C                |     2.06765  |     1.09415
    4 H                |   2 C                |     2.06765  |     1.09415
    5 H                |   2 C                |     2.06765  |     1.09415
 ------------------------------------------------------------------------------
                         number of included internuclear distances:          4
 ==============================================================================



 ==============================================================================
                                 internuclear angles
 ------------------------------------------------------------------------------
        center 1       |       center 2       |       center 3       |  degrees
 ------------------------------------------------------------------------------
    1 I                |   2 C                |   3 H                |   107.66
    1 I                |   2 C                |   4 H                |   107.66
    1 I                |   2 C                |   5 H                |   107.66
    3 H                |   2 C                |   4 H                |   111.22
    3 H                |   2 C                |   5 H                |   111.22
    4 H                |   2 C                |   5 H                |   111.22
 ------------------------------------------------------------------------------
                            number of included internuclear angles:          6
 ==============================================================================




 Task  times  cpu:       34.0s     wall:       34.6s


                                NWChem Input Module
                                -------------------


 Summary of allocated global arrays
-----------------------------------
  No active global arrays


MA_summarize_allocated_blocks: starting scan ...
MA_summarize_allocated_blocks: scan completed: 0 heap blocks, 0 stack blocks
MA usage statistics:

	allocation statistics:
					      heap	     stack
					      ----	     -----
	current number of blocks	         0	         0
	maximum number of blocks	        42	        62
	current total bytes		         0	         0
	maximum total bytes		 269795400	  33014072
	maximum total K-bytes		    269796	     33015
	maximum total M-bytes		       270	        34


                                     CITATION
                                     --------
                Please cite the following reference when publishing
                           results obtained with NWChem:

          E. Apra, E. J. Bylaska, W. A. de Jong, N. Govind, K. Kowalski,
       T. P. Straatsma, M. Valiev, H. J. J. van Dam, Y. Alexeev, J. Anchell,
       V. Anisimov, F. W. Aquino, R. Atta-Fynn, J. Autschbach, N. P. Bauman,
     J. C. Becca, D. E. Bernholdt, K. Bhaskaran-Nair, S. Bogatko, P. Borowski,
         J. Boschen, J. Brabec, A. Bruner, E. Cauet, Y. Chen, G. N. Chuev,
      C. J. Cramer, J. Daily, M. J. O. Deegan, T. H. Dunning Jr., M. Dupuis,
   K. G. Dyall, G. I. Fann, S. A. Fischer, A. Fonari, H. Fruchtl, L. Gagliardi,
      J. Garza, N. Gawande, S. Ghosh, K. Glaesemann, A. W. Gotz, J. Hammond,
       V. Helms, E. D. Hermes, K. Hirao, S. Hirata, M. Jacquelin, L. Jensen,
   B. G. Johnson, H. Jonsson, R. A. Kendall, M. Klemm, R. Kobayashi, V. Konkov,
      S. Krishnamoorthy, M. Krishnan, Z. Lin, R. D. Lins, R. J. Littlefield,
      A. J. Logsdail, K. Lopata, W. Ma, A. V. Marenich, J. Martin del Campo,
   D. Mejia-Rodriguez, J. E. Moore, J. M. Mullin, T. Nakajima, D. R. Nascimento,
    J. A. Nichols, P. J. Nichols, J. Nieplocha, A. Otero-de-la-Roza, B. Palmer,
    A. Panyala, T. Pirojsirikul, B. Peng, R. Peverati, J. Pittner, L. Pollack,
   R. M. Richard, P. Sadayappan, G. C. Schatz, W. A. Shelton, D. W. Silverstein,
   D. M. A. Smith, T. A. Soares, D. Song, M. Swart, H. L. Taylor, G. S. Thomas,
            V. Tipparaju, D. G. Truhlar, K. Tsemekhman, T. Van Voorhis,
      A. Vazquez-Mayagoitia, P. Verma, O. Villa, A. Vishnu, K. D. Vogiatzis,
        D. Wang, J. H. Weare, M. J. Williamson, T. L. Windus, K. Wolinski,
        A. T. Wong, Q. Wu, C. Yang, Q. Yu, M. Zacharias, Z. Zhang, Y. Zhao,
                                and R. J. Harrison
                        "NWChem: Past, present, and future
                         J. Chem. Phys. 152, 184102 (2020)
                               doi:10.1063/5.0004997

                                      AUTHORS
                                      -------
  E. Apra, E. J. Bylaska, N. Govind, K. Kowalski, M. Valiev, D. Mejia-Rodriguez,
       A. Kunitsa, N. P. Bauman, A. Panyala, W. A. de Jong, T. P. Straatsma,
   H. J. J. van Dam, D. Wang, T. L. Windus, J. Hammond, J. Autschbach, A. Woods,
    K. Bhaskaran-Nair, J. Brabec, K. Lopata, S. A. Fischer, S. Krishnamoorthy,
     M. Jacquelin, W. Ma, M. Klemm, O. Villa, Y. Chen, V. Anisimov, F. Aquino,
     S. Hirata, M. T. Hackler, E. Hermes, L. Jensen, J. E. Moore, J. C. Becca,
      V. Konjkov, T. Risthaus, M. Malagoli, A. Marenich, A. Otero-de-la-Roza,
        J. Mullin, P. Nichols, R. Peverati, J. Pittner, Y. Zhao, P.-D. Fan,
        A. Fonari, M. J. Williamson, R. J. Harrison, J. R. Rehr, M. Dupuis,
     D. Silverstein, D. M. A. Smith, J. Nieplocha, V. Tipparaju, M. Krishnan,
     B. E. Van Kuiken, A. Vazquez-Mayagoitia, M. Swart, Q. Wu, T. Van Voorhis,
     A. A. Auer, M. Nooijen, L. D. Crosby, E. Brown, G. Cisneros, G. I. Fann,
   H. Fruchtl, J. Garza, K. Hirao, R. A. Kendall, J. A. Nichols, K. Tsemekhman,
    K. Wolinski, J. Anchell, D. E. Bernholdt, P. Borowski, T. Clark, D. Clerc,
   H. Dachsel, M. J. O. Deegan, K. Dyall, D. Elwood, E. Glendening, M. Gutowski,
   A. C. Hess, J. Jaffe, B. G. Johnson, J. Ju, R. Kobayashi, R. Kutteh, Z. Lin,
   R. Littlefield, X. Long, B. Meng, T. Nakajima, S. Niu, L. Pollack, M. Rosing,
   K. Glaesemann, G. Sandrone, M. Stave, H. Taylor, G. Thomas, J. H. van Lenthe,
                               A. T. Wong, Z. Zhang.

 Total times  cpu:       34.0s     wall:       34.7s
