 argument  1 = CH3Cl_I.nw



============================== echo of input deck ==============================
echo

start molecule

title "Title"
charge -1

geometry units angstroms print xyz autosym
I        0.0037765943     -0.0037765943     -3.1954706860
Cl       0.0000000000      0.0000000000      0.6728488100
C        0.0000000000      0.0000000000     -1.1284976200
H        0.7352919300      0.7352919300     -1.4730419600
H        0.2691355300     -1.0044274600     -1.4730419600
H       -1.0044274600      0.2691355300     -1.4730419600
end

geometry adjust
        zcoord
            bond 1 3 3.000 cccc constant
	end
end

basis
  * library def2-svpd
end

ecp
 I library "def2-ecp"
end

dft
xc b3lyp
mult 1
end

driver
default
maxiter 99
xyz CH3Cl_I
end

task dft optimize
================================================================================


                                         
                                         


             Northwest Computational Chemistry Package (NWChem) 7.2.2
             --------------------------------------------------------


                    Environmental Molecular Sciences Laboratory
                       Pacific Northwest National Laboratory
                                Richland, WA 99352

                              Copyright (c) 1994-2022
                       Pacific Northwest National Laboratory
                            Battelle Memorial Institute

             NWChem is an open-source computational chemistry package
                        distributed under the terms of the
                      Educational Community License (ECL) 2.0
             A copy of the license is included with this distribution
                              in the LICENSE.TXT file

                                  ACKNOWLEDGMENT
                                  --------------

            This software and its documentation were developed at the
            EMSL at Pacific Northwest National Laboratory, a multiprogram
            national laboratory, operated for the U.S. Department of Energy
            by Battelle under Contract Number DE-AC05-76RL01830. Support
            for this work was provided by the Department of Energy Office
            of Biological and Environmental Research, Office of Basic
            Energy Sciences, and the Office of Advanced Scientific Computing.


           Job information
           ---------------

    hostname        = iiserb-lab4
    program         = nwchem
    date            = Mon Jul  8 21:39:27 2024

    compiled        = Fri_Jun_07_08:00:10_2024
    source          = /home/conda/feedstock_root/build_artifacts/nwchem_1717738152402/work
    nwchem branch   = 7.2.2
    nwchem revision = 64ba0f0
    ga revision     = 5.8.0
    use scalapack   = T
    input           = CH3Cl_I.nw
    prefix          = molecule.
    data base       = ./molecule.db
    status          = startup
    nproc           =        4
    time left       =     -1s



           Memory information
           ------------------

    heap     =   26214400 doubles =    200.0 Mbytes
    stack    =   26214397 doubles =    200.0 Mbytes
    global   =   52428800 doubles =    400.0 Mbytes (distinct from heap & stack)
    total    =  104857597 doubles =    800.0 Mbytes
    verify   = yes
    hardfail = no 


           Directory information
           ---------------------

  0 permanent = .
  0 scratch   = .




                                NWChem Input Module
                                -------------------


                                       Title
                                       -----

 Scaling coordinates for geometry "geometry" by  1.889725989
 (inverse scale =  0.529177249)

 C3  symmetry detected

          ------
          auto-z
          ------
  no constraints, skipping    0.0000000000000000     
  no constraints, skipping    0.0000000000000000     


                             Geometry "geometry" -> ""
                             -------------------------

 Output coordinates in angstroms (scale by  1.889725989 to convert to a.u.)

  No.       Tag          Charge          X              Y              Z
 ---- ---------------- ---------- -------------- -------------- --------------
    1 I                   53.0000     0.00000000     0.00000000     1.05481861
    2 Cl                  17.0000     0.00000000     0.00000000    -2.81350455
    3 C                    6.0000     0.00000000    -0.00000000    -1.01216010
    4 H                    1.0000     1.03985925     0.00000000    -0.66761614
    5 H                    1.0000    -0.51992963     0.90054453    -0.66761614
    6 H                    1.0000    -0.51992963    -0.90054453    -0.66761614

      Atomic Mass 
      ----------- 

      I                126.900400
      Cl                34.968850
      C                 12.000000
      H                  1.007825


 Effective nuclear repulsion energy (a.u.)     297.3450813121

            Nuclear Dipole moment (a.u.) 
            ----------------------------
        X                 Y               Z
 ---------------- ---------------- ----------------
     0.0000000000     0.0000000000    -0.0000000000

      Symmetry information
      --------------------

 Group name             C3        
 Group number              5
 Group order               3
 No. of unique centers     4

      Symmetry unique atoms

     1    2    3    4



                                Z-matrix (autoz)
                                -------- 

 Units are Angstrom for bonds and degrees for angles

      Type          Name      I     J     K     L     M      Value
      ----------- --------  ----- ----- ----- ----- ----- ----------
    1 Stretch                  1     3                       2.06698
    2 Stretch                  1     4                       2.01199
    3 Stretch                  1     5                       2.01199
    4 Stretch                  1     6                       2.01199
    5 Stretch                  2     3                       1.80134
    6 Stretch                  3     4                       1.09545
    7 Stretch                  3     5                       1.09545
    8 Stretch                  3     6                       1.09545
    9 Bend                     1     3     4                71.66805
   10 Bend                     1     3     5                71.66805
   11 Bend                     1     3     6                71.66805
   12 Bend                     1     4     3                77.21195
   13 Bend                     1     5     3                77.21195
   14 Bend                     1     6     3                77.21195
   15 Bend                     2     3     4               108.33195
   16 Bend                     2     3     5               108.33195
   17 Bend                     2     3     6               108.33195
   18 Bend                     3     1     4                31.12000
   19 Bend                     3     1     5                31.12000
   20 Bend                     3     1     6                31.12000
   21 Bend                     4     1     5                53.17831
   22 Bend                     4     1     6                53.17831
   23 Bend                     4     3     5               110.58607
   24 Bend                     4     3     6               110.58607
   25 Bend                     5     1     6                53.17831
   26 Bend                     5     3     6               110.58607
   27 Torsion                  1     4     3     2         180.00000
   28 Torsion                  1     4     3     5          61.41987
   29 Torsion                  1     4     3     6         -61.41987
   30 Torsion                  1     5     3     2        -180.00000
   31 Torsion                  1     5     3     4         -61.41987
   32 Torsion                  1     5     3     6          61.41987
   33 Torsion                  1     6     3     2        -180.00000
   34 Torsion                  1     6     3     4          61.41987
   35 Torsion                  1     6     3     5         -61.41987
   36 Torsion                  3     4     1     5         -33.99597
   37 Torsion                  3     4     1     6          33.99597
   38 Torsion                  3     5     1     4          33.99597
   39 Torsion                  3     5     1     6         -33.99597
   40 Torsion                  3     6     1     4         -33.99597
   41 Torsion                  3     6     1     5          33.99597
   42 Torsion                  4     1     3     5        -120.00000
   43 Torsion                  4     1     3     6         120.00000
   44 Torsion                  4     3     1     5         120.00000
   45 Torsion                  4     3     1     6        -120.00000
   46 Torsion                  5     1     3     6        -120.00000
   47 Torsion                  5     3     1     6         120.00000


            XYZ format geometry
            -------------------
     6
 geometry
 I                     0.00000000     0.00000000     1.05481861
 Cl                    0.00000000     0.00000000    -2.81350455
 C                     0.00000000    -0.00000000    -1.01216010
 H                     1.03985925     0.00000000    -0.66761614
 H                    -0.51992963     0.90054453    -0.66761614
 H                    -0.51992963    -0.90054453    -0.66761614

 ==============================================================================
                                internuclear distances
 ------------------------------------------------------------------------------
       center one      |      center two      | atomic units |  angstroms
 ------------------------------------------------------------------------------
    3 C                |   1 I                |     3.90602  |     2.06698
    3 C                |   2 Cl               |     3.40405  |     1.80134
    4 H                |   3 C                |     2.07011  |     1.09545
    5 H                |   3 C                |     2.07011  |     1.09545
    6 H                |   3 C                |     2.07011  |     1.09545
 ------------------------------------------------------------------------------
                         number of included internuclear distances:          5
 ==============================================================================



 ==============================================================================
                                 internuclear angles
 ------------------------------------------------------------------------------
        center 1       |       center 2       |       center 3       |  degrees
 ------------------------------------------------------------------------------
    1 I                |   3 C                |   2 Cl               |   180.00
    1 I                |   3 C                |   4 H                |    71.67
    1 I                |   3 C                |   5 H                |    71.67
    1 I                |   3 C                |   6 H                |    71.67
    2 Cl               |   3 C                |   4 H                |   108.33
    2 Cl               |   3 C                |   5 H                |   108.33
    2 Cl               |   3 C                |   6 H                |   108.33
    4 H                |   3 C                |   5 H                |   110.59
    4 H                |   3 C                |   6 H                |   110.59
    5 H                |   3 C                |   6 H                |   110.59
 ------------------------------------------------------------------------------
                            number of included internuclear angles:         10
 ==============================================================================




 Adjusting existing geometry named geometry

 User specification of redundant internal variables 
 --------------------------------------------------

   i   j   k   l     value       name   frz
  --- --- --- --- ------------ -------- ---
    1   3             3.000000 cccc       T

 C3V symmetry detected

          ------
          auto-z
          ------


                         Geometry "geometry" -> "geometry"
                         ---------------------------------

 Output coordinates in angstroms (scale by  1.889725989 to convert to a.u.)

  No.       Tag          Charge          X              Y              Z
 ---- ---------------- ---------- -------------- -------------- --------------
    1 I                   53.0000    -0.00000000     0.00000000     1.73704985
    2 Cl                  17.0000     0.00000000     0.00000000    -3.06429425
    3 C                    6.0000    -0.00000000     0.00000000    -1.26294980
    4 H                    1.0000     0.82167284     0.82167284    -0.72783342
    5 H                    1.0000    -1.12242597     0.30075313    -0.72783342
    6 H                    1.0000     0.30075313    -1.12242597    -0.72783342

      Atomic Mass 
      ----------- 

      I                126.900400
      Cl                34.968850
      C                 12.000000
      H                  1.007825


 Effective nuclear repulsion energy (a.u.)     234.8130576170

            Nuclear Dipole moment (a.u.) 
            ----------------------------
        X                 Y               Z
 ---------------- ---------------- ----------------
     0.0000000000     0.0000000000    57.0875650700

      Symmetry information
      --------------------

 Group name             C3v       
 Group number             17
 Group order               6
 No. of unique centers     4

      Symmetry unique atoms

     1    2    3    4



                                Z-matrix (autoz)
                                -------- 

 Units are Angstrom for bonds and degrees for angles

  Constants are marked with an asterisk (*).

      Type          Name      I     J     K     L     M      Value
      ----------- --------  ----- ----- ----- ----- ----- ----------
    1*Stretch      cccc        1     3                       3.00000
    2 Stretch                  1     4                       2.72506
    3 Stretch                  1     5                       2.72506
    4 Stretch                  1     6                       2.72506
    5 Stretch                  2     3                       1.80134
    6 Stretch                  3     4                       1.27931
    7 Stretch                  3     5                       1.27931
    8 Stretch                  3     6                       1.27931
    9 Bend                     1     3     4                65.27369
   10 Bend                     1     3     5                65.27369
   11 Bend                     1     3     6                65.27369
   12 Bend                     1     4     3                89.48569
   13 Bend                     1     5     3                89.48569
   14 Bend                     1     6     3                89.48569
   15 Bend                     2     3     4               114.72631
   16 Bend                     2     3     5               114.72631
   17 Bend                     2     3     6               114.72631
   18 Bend                     3     1     4                25.24061
   19 Bend                     3     1     5                25.24061
   20 Bend                     3     1     6                25.24061
   21 Bend                     4     1     5                43.34380
   22 Bend                     4     1     6                43.34380
   23 Bend                     4     3     5               103.74243
   24 Bend                     4     3     6               103.74243
   25 Bend                     5     1     6                43.34380
   26 Bend                     5     3     6               103.74243
   27 Torsion                  1     4     3     2        -180.00000
   28 Torsion                  1     4     3     5          54.07707
   29 Torsion                  1     4     3     6         -54.07707
   30 Torsion                  1     5     3     2         180.00000
   31 Torsion                  1     5     3     4         -54.07707
   32 Torsion                  1     5     3     6          54.07707
   33 Torsion                  1     6     3     2        -180.00000
   34 Torsion                  1     6     3     4          54.07707
   35 Torsion                  1     6     3     5         -54.07707
   36 Torsion                  3     4     1     5         -32.54973
   37 Torsion                  3     4     1     6          32.54973
   38 Torsion                  3     5     1     4          32.54973
   39 Torsion                  3     5     1     6         -32.54973
   40 Torsion                  3     6     1     4         -32.54973
   41 Torsion                  3     6     1     5          32.54973
   42 Torsion                  4     1     3     5        -120.00000
   43 Torsion                  4     1     3     6         120.00000
   44 Torsion                  4     3     1     5         120.00000
   45 Torsion                  4     3     1     6        -120.00000
   46 Torsion                  5     1     3     6        -120.00000
   47 Torsion                  5     3     1     6         120.00000


            XYZ format geometry
            -------------------
     6
 geometry
 I                    -0.00000000     0.00000000     1.73704985
 Cl                    0.00000000     0.00000000    -3.06429425
 C                    -0.00000000     0.00000000    -1.26294980
 H                     0.82167284     0.82167284    -0.72783342
 H                    -1.12242597     0.30075313    -0.72783342
 H                     0.30075313    -1.12242597    -0.72783342

 ==============================================================================
                                internuclear distances
 ------------------------------------------------------------------------------
       center one      |      center two      | atomic units |  angstroms
 ------------------------------------------------------------------------------
    3 C                |   2 Cl               |     3.40405  |     1.80134
 ------------------------------------------------------------------------------
                         number of included internuclear distances:          1
 ==============================================================================



  library name resolved from: environment
  library file name is: </home/iiserb/anaconda3/envs/chemstarx/share/nwchem/libraries/>
  


 Summary of "ao basis" -> "" (cartesian)
 ------------------------------------------------------------------------------
       Tag                 Description            Shells   Functions and Types
 ---------------- ------------------------------  ------  ---------------------
 *                         def2-svpd                  on all atoms 


  library name resolved from: environment
  library file name is: </home/iiserb/anaconda3/envs/chemstarx/share/nwchem/libraries/>
  
                 ECP       "ecp basis" -> "" (cartesian)
                -----
  I (Iodine) Replaces    28 electrons
  -----------------------------------
             Channel    R-exponent     Exponent     Coefficients
         ------------ ---------------------------------------------------------
  1 U L       Both         2.00       19.458609     -21.842040
  1 U L       Both         2.00       19.349260     -28.468191
  1 U L       Both         2.00        4.823767      -0.243713
  1 U L       Both         2.00        4.884315      -0.320804

  2 U-s       Both         2.00       40.015835      49.994293
  2 U-s       Both         2.00       17.429747     281.025317
  2 U-s       Both         2.00        9.005484      61.573326
  2 U-s       Both         2.00       19.458609      21.842040
  2 U-s       Both         2.00       19.349260      28.468191
  2 U-s       Both         2.00        4.823767       0.243713
  2 U-s       Both         2.00        4.884315       0.320804

  3 U-p       Both         2.00       15.355466      67.442841
  3 U-p       Both         2.00       14.971833     134.881137
  3 U-p       Both         2.00        8.960164      14.675051
  3 U-p       Both         2.00        8.259096      29.375666
  3 U-p       Both         2.00       19.458609      21.842040
  3 U-p       Both         2.00       19.349260      28.468191
  3 U-p       Both         2.00        4.823767       0.243713
  3 U-p       Both         2.00        4.884315       0.320804

  4 U-d       Both         2.00       15.068908      35.439529
  4 U-d       Both         2.00       14.555322      53.176057
  4 U-d       Both         2.00        6.718647       9.067195
  4 U-d       Both         2.00        6.456393      13.206937
  4 U-d       Both         2.00        1.191779       0.089335
  4 U-d       Both         2.00        1.291157       0.052380
  4 U-d       Both         2.00       19.458609      21.842040
  4 U-d       Both         2.00       19.349260      28.468191
  4 U-d       Both         2.00        4.823767       0.243713
  4 U-d       Both         2.00        4.884315       0.320804



                           NWChem Geometry Optimization
                           ----------------------------




                                       Title


 maximum gradient threshold         (gmax) =   0.000450
 rms gradient threshold             (grms) =   0.000300
 maximum cartesian step threshold   (xmax) =   0.001800
 rms cartesian step threshold       (xrms) =   0.001200
 fixed trust radius                (trust) =   0.300000
 maximum step size to saddle      (sadstp) =   0.100000
 energy precision                  (eprec) =   5.0D-06
 maximum number of steps          (nptopt) =   99
 initial hessian option           (inhess) =    0
 line search option               (linopt) =    1
 hessian update option            (modupd) =    1
 saddle point option              (modsad) =    0
 initial eigen-mode to follow     (moddir) =    0
 initial variable to follow       (vardir) =    0
 follow first negative mode     (firstneg) =    T
 apply conjugacy                    (opcg) =    F
 source of zmatrix                         =   autoz   


          -------------------
          Energy Minimization
          -------------------


 Names of Z-matrix variables 
    1 cccc         2              3              4              5         
    6              7              8              9             10         
   11             12             13             14             15         
   16             17             18             19             20         
   21             22             23             24             25         
   26             27             28             29             30         
   31             32             33             34             35         
   36             37             38             39             40         
   41             42             43             44             45         
   46             47         

 Variables with the same non-blank name are constrained to be equal


 Number of frozen variables =    1
           Frozen variables =    1

 Using diagonal initial Hessian 
 Scaling for Hessian diagonals: bonds = 1.00  angles = 0.25  torsions = 0.10

          --------
          Step   0
          --------


                         Geometry "geometry" -> "geometry"
                         ---------------------------------

 Output coordinates in angstroms (scale by  1.889725989 to convert to a.u.)

  No.       Tag          Charge          X              Y              Z
 ---- ---------------- ---------- -------------- -------------- --------------
    1 I                   53.0000    -0.00000000     0.00000000     1.73704985
    2 Cl                  17.0000     0.00000000     0.00000000    -3.06429425
    3 C                    6.0000    -0.00000000     0.00000000    -1.26294980
    4 H                    1.0000     0.82167284     0.82167284    -0.72783342
    5 H                    1.0000    -1.12242597     0.30075313    -0.72783342
    6 H                    1.0000     0.30075313    -1.12242597    -0.72783342

      Atomic Mass 
      ----------- 

      I                126.900400
      Cl                34.968850
      C                 12.000000
      H                  1.007825


 Effective nuclear repulsion energy (a.u.)     234.8130576170

            Nuclear Dipole moment (a.u.) 
            ----------------------------
        X                 Y               Z
 ---------------- ---------------- ----------------
     0.0000000000     0.0000000000    57.0875650700

      Symmetry information
      --------------------

 Group name             C3v       
 Group number             17
 Group order               6
 No. of unique centers     4

      Symmetry unique atoms

     1    2    3    4


                                 NWChem DFT Module
                                 -----------------


                                       Title


                      Basis "ao basis" -> "ao basis" (cartesian)
                      -----
  I (Iodine)
  ----------
            Exponent  Coefficients 
       -------------- ---------------------------------------------------------
  1 S  4.45904892E+02  0.002004
  1 S  2.33368424E+01 -0.149894
  1 S  1.95834461E+01  0.364365
  1 S  8.51120892E+00 -0.755381
  1 S  2.19961619E+00  0.828164
  1 S  1.06689705E+00  0.421610

  2 S  1.17205476E+01 -0.016160
  2 S  1.76259864E+00  0.352715

  3 S  2.86974763E-01  1.000000

  4 S  1.12276096E-01  1.000000

  5 S  4.51236355E-02  1.000000

  6 P  2.04990273E+01  0.077159
  6 P  1.05587546E+01 -0.383704
  6 P  1.50158955E+00  0.835542
  6 P  6.45971731E-01  0.167873

  7 P  3.02886568E+00  1.000000

  8 P  3.45065918E-01  1.000000

  9 P  1.11345138E-01  1.000000

 10 P  2.97955072E-02  1.000000

 11 D  5.12353549E+01  0.004035
 11 D  1.56162395E+01 -0.005077
 11 D  4.52660021E+00  0.291511
 11 D  2.05298088E+00  0.511458
 11 D  8.76402816E-01  0.312320

 12 D  3.09000000E-01  1.000000

 13 D  7.79872552E-02  1.000000

  Cl (Chlorine)
  -------------
            Exponent  Coefficients 
       -------------- ---------------------------------------------------------
  1 S  1.04498276E+04  0.001971
  1 S  1.57173652E+03  0.014755
  1 S  3.57120655E+02  0.066679
  1 S  1.00251859E+02  0.172289
  1 S  3.08127276E+01  0.158838

  2 S  5.19237894E+01 -0.100093
  2 S  5.70457610E+00  0.608418
  2 S  2.35083768E+00  0.543522

  3 S  4.46051247E-01  1.000000

  4 S  1.68488562E-01  1.000000

  5 S  5.53442294E-02  1.000000

  6 P  3.07667906E+02 -0.008780
  6 P  7.21020155E+01 -0.063563
  6 P  2.25326803E+01 -0.240164
  6 P  7.89917654E+00 -0.477989
  6 P  2.87672683E+00 -0.385159

  7 P  7.74593640E-01  1.000000

  8 P  2.10376997E-01  1.000000

  9 P  5.00462711E-02  1.000000

 10 D  6.50000000E-01  1.000000

 11 D  1.22848034E-01  1.000000

  C (Carbon)
  ----------
            Exponent  Coefficients 
       -------------- ---------------------------------------------------------
  1 S  1.23840169E+03  0.005457
  1 S  1.86290050E+02  0.040638
  1 S  4.22511763E+01  0.180256
  1 S  1.16765579E+01  0.463151
  1 S  3.59305065E+00  0.440872

  2 S  4.02451474E-01  1.000000

  3 S  1.30901827E-01  1.000000

  4 S  6.70535403E-02  1.000000

  5 P  9.46809706E+00  0.038388
  5 P  2.01035451E+00  0.211170
  5 P  5.47710047E-01  0.513282

  6 P  1.52686138E-01  1.000000

  7 D  8.00000000E-01  1.000000

  8 D  1.17131851E-01  1.000000

  H (Hydrogen)
  ------------
            Exponent  Coefficients 
       -------------- ---------------------------------------------------------
  1 S  1.30107010E+01  0.019682
  1 S  1.96225720E+00  0.137965
  1 S  4.44537960E-01  0.478319

  2 S  1.21949620E-01  1.000000

  3 P  8.00000000E-01  1.000000

  4 P  1.17040991E-01  1.000000



 Summary of "ao basis" -> "ao basis" (cartesian)
 ------------------------------------------------------------------------------
       Tag                 Description            Shells   Functions and Types
 ---------------- ------------------------------  ------  ---------------------
 I                         def2-svpd                13       38   5s5p3d
 Cl                        def2-svpd                11       29   5s4p2d
 C                         def2-svpd                 8       22   4s2p2d
 H                         def2-svpd                 4        8   2s2p




 Summary of "ao basis" -> "ao basis" (cartesian)
 ------------------------------------------------------------------------------
       Tag                 Description            Shells   Functions and Types
 ---------------- ------------------------------  ------  ---------------------
 I                         def2-svpd                13       38   5s5p3d
 Cl                        def2-svpd                11       29   5s4p2d
 C                         def2-svpd                 8       22   4s2p2d
 H                         def2-svpd                 4        8   2s2p


      Symmetry analysis of basis
      --------------------------

        a1         45
        a2          2
        e          66

  Caching 1-el integrals 
  Rotation of axis 

            General Information
            -------------------
          SCF calculation type: DFT
          Wavefunction type:  closed shell.
          No. of atoms     :     6
          No. of electrons :    52
           Alpha electrons :    26
            Beta electrons :    26
          Charge           :    -1
          Spin multiplicity:     1
          Use of symmetry is: on ; symmetry adaption is: on 
          Maximum number of iterations:  50
          AO basis - number of functions:   113
                     number of shells:    44
          Convergence on energy requested:  1.00D-06
          Convergence on density requested:  1.00D-05
          Convergence on gradient requested:  5.00D-04

              XC Information
              --------------
                         B3LYP Method XC Potential
                     Hartree-Fock (Exact) Exchange  0.200          
                        Slater Exchange Functional  0.800 local    
                    Becke 1988 Exchange Functional  0.720 non-local
              Lee-Yang-Parr Correlation Functional  0.810          
                  VWN I RPA Correlation Functional  0.190 local    

             Grid Information
             ----------------
          Grid used for XC integration:  medium    
          Radial quadrature: Mura-Knowles        
          Angular quadrature: Lebedev. 
          Tag              B.-S. Rad. Rad. Pts. Rad. Cut. Ang. Pts.
          ---              ---------- --------- --------- ---------
          I                   1.40      123          15.0       590
          Cl                  1.00       88          16.0       590
          C                   0.70       49          13.0       434
          H                   0.35       45          11.0       434
          Grid pruning is: on 
          Number of quadrature shells:   305
          Spatial weights used:  Erf1

          Convergence Information
          -----------------------
          Convergence aids based upon iterative change in 
          total energy or number of iterations. 
          Levelshifting, if invoked, occurs when the 
          HOMO/LUMO gap drops below (HL_TOL):  1.00D-02
          DIIS, if invoked, will attempt to extrapolate 
          using up to (NFOCK): 10 stored Fock matrices.

                    Damping( 0%)  Levelshifting(0.5)       DIIS
                  --------------- ------------------- ---------------
          dE  on:    start            ASAP                start   
          dE off:    2 iters         50 iters            50 iters 


      Screening Tolerance Information
      -------------------------------
          Density screening/tol_rho:  1.00D-10
          AO Gaussian exp screening on grid/accAOfunc:  14
          CD Gaussian exp screening on grid/accCDfunc:  20
          XC Gaussian exp screening on grid/accXCfunc:  20
          Schwarz screening/accCoul:  1.00D-08


      Superposition of Atomic Density Guess
      -------------------------------------

 Sum of atomic energies:        -845.57913955

 Renormalizing density from      51.00 to     52

      Non-variational initial energy
      ------------------------------

 Total energy =    -802.799166
 1-e energy   =   -1504.941356
 2-e energy   =     565.737021
 HOMO         =      -0.046725
 LUMO         =       0.178237


      Symmetry analysis of molecular orbitals - initial
      -------------------------------------------------

  Numbering of irreducible representations: 

     1 a1          2 a2          3 e       

  Orbital symmetries:

     1 a1          2 a1          3 a1          4 a1          5 e       
     6 e           7 a1          8 e           9 e          10 a1      
    11 e          12 e          13 a1         14 e          15 e       
    16 a1         17 a1         18 a1         19 a1         20 e       
    21 e          22 e          23 e          24 e          25 e       
    26 a1         27 a1         28 a1         29 a1         30 e       
    31 e          32 e          33 e          34 a1         35 a1      
    36 e       

  WARNING: movecs_in_org=atomic not equal to movecs_in=./molecule.movecs
   Time after variat. SCF:      0.4
   Time prior to 1st pass:      0.4

 Grid_pts file          = ./molecule.gridpts.0
 Record size in doubles =  12289        No. of grid_pts per rec  =   3070
 Max. records in memory =     18        Max. recs in file   = 253312716


           Memory utilization after 1st SCF pass: 
           Heap Space remaining (MW):        0.00                 452
          Stack Space remaining (MW):       26.21            26213652

   convergence    iter        energy       DeltaE   RMS-Dens  Diis-err    time
 ---------------- ----- ----------------- --------- --------- ---------  ------
 d= 0,ls=0.0,diis     1   -797.6666725458 -9.34D+02  2.03D-02  1.28D+00     1.0
 d= 0,ls=0.0,diis     2   -797.5684142630  9.83D-02  1.29D-02  1.82D+00     1.6
 d= 0,ls=0.0,diis     3   -797.7962963489 -2.28D-01  3.05D-03  1.15D-01     2.1
 d= 0,ls=0.0,diis     4   -797.8109940990 -1.47D-02  8.96D-04  8.75D-03     2.7
 d= 0,ls=0.0,diis     5   -797.8121048927 -1.11D-03  2.07D-04  2.02D-04     3.2
  Resetting Diis
 d= 0,ls=0.0,diis     6   -797.8121339021 -2.90D-05  5.95D-05  2.71D-05     3.8
 d= 0,ls=0.0,diis     7   -797.8121380465 -4.14D-06  1.26D-05  2.61D-07     4.4
 d= 0,ls=0.0,diis     8   -797.8121380510 -4.45D-09  5.53D-06  3.46D-07     4.9


         Total DFT energy =     -797.812138050955
      One electron energy =    -1487.979935324203
           Coulomb energy =      610.876415353690
    Exchange-Corr. energy =      -57.113788270449
 Nuclear repulsion energy =      136.405170190008

 Numeric. integr. density =       51.999993496260

     Total iterative time =      4.5s



                  Occupations of the irreducible representations
                  ----------------------------------------------

                     irrep           alpha         beta
                     --------     --------     --------
                     a1               12.0         12.0
                     a2                0.0          0.0
                     e                14.0         14.0


                       DFT Final Molecular Orbital Analysis
                       ------------------------------------

 Vector    1  Occ=2.000000D+00  E=-1.014059D+02  Symmetry=a1
              MO Center=  1.6D-20, -1.8D-21, -3.1D+00, r^2= 3.2D-03
   Bfn.  Coefficient  Atom+Function         Bfn.  Coefficient  Atom+Function  
  ----- ------------  ---------------      ----- ------------  ---------------
    39      0.993386  2 Cl s                 40      0.030532  2 Cl s          
    41     -0.025110  2 Cl s          

 Vector    2  Occ=2.000000D+00  E=-1.013444D+01  Symmetry=a1
              MO Center=  1.6D-18,  1.2D-17, -1.3D+00, r^2= 2.8D-02
   Bfn.  Coefficient  Atom+Function         Bfn.  Coefficient  Atom+Function  
  ----- ------------  ---------------      ----- ------------  ---------------
    68      0.987731  3 C  s                 71     -0.121258  3 C  s          
    69      0.061820  3 C  s                 84      0.037529  3 C  dxx        
    87      0.037529  3 C  dyy               70      0.034782  3 C  s          
    89      0.033383  3 C  dzz        

 Vector    3  Occ=2.000000D+00  E=-9.336385D+00  Symmetry=a1
              MO Center= -2.2D-21,  4.8D-22, -3.1D+00, r^2= 6.6D-02
   Bfn.  Coefficient  Atom+Function         Bfn.  Coefficient  Atom+Function  
  ----- ------------  ---------------      ----- ------------  ---------------
    40      1.013645  2 Cl s                 39     -0.311079  2 Cl s          
    41      0.071691  2 Cl s          

 Vector    4  Occ=2.000000D+00  E=-7.105831D+00  Symmetry=a1
              MO Center=  1.1D-19,  9.2D-20, -3.1D+00, r^2= 5.8D-02
   Bfn.  Coefficient  Atom+Function         Bfn.  Coefficient  Atom+Function  
  ----- ------------  ---------------      ----- ------------  ---------------
    46      0.980275  2 Cl pz                49     -0.054440  2 Cl pz         
    70     -0.047637  3 C  s                 42      0.030450  2 Cl s          
    52      0.026023  2 Cl pz         

 Vector    5  Occ=2.000000D+00  E=-7.097202D+00  Symmetry=e
              MO Center= -2.8D-06,  2.5D-06, -3.1D+00, r^2= 5.8D-02
   Bfn.  Coefficient  Atom+Function         Bfn.  Coefficient  Atom+Function  
  ----- ------------  ---------------      ----- ------------  ---------------
    45      0.980628  2 Cl py                48     -0.051503  2 Cl py         
    44      0.025177  2 Cl px         

 Vector    6  Occ=2.000000D+00  E=-7.097202D+00  Symmetry=e
              MO Center=  2.8D-06, -2.5D-06, -3.1D+00, r^2= 5.8D-02
   Bfn.  Coefficient  Atom+Function         Bfn.  Coefficient  Atom+Function  
  ----- ------------  ---------------      ----- ------------  ---------------
    44      0.980628  2 Cl px                47     -0.051503  2 Cl px         
    45     -0.025177  2 Cl py         

 Vector    7  Occ=2.000000D+00  E=-6.598696D+00  Symmetry=a1
              MO Center=  1.8D-23,  5.9D-23,  1.7D+00, r^2= 1.8D-01
   Bfn.  Coefficient  Atom+Function         Bfn.  Coefficient  Atom+Function  
  ----- ------------  ---------------      ----- ------------  ---------------
     1      0.934725  1 I  s                  2      0.082867  1 I  s          
     3      0.034069  1 I  s          

 Vector    8  Occ=2.000000D+00  E=-4.615965D+00  Symmetry=a1
              MO Center=  2.1D-17, -1.8D-16,  1.7D+00, r^2= 2.0D-01
   Bfn.  Coefficient  Atom+Function         Bfn.  Coefficient  Atom+Function  
  ----- ------------  ---------------      ----- ------------  ---------------
     8      0.566527  1 I  pz                11      0.537107  1 I  pz         

 Vector    9  Occ=2.000000D+00  E=-4.615610D+00  Symmetry=e
              MO Center=  1.4D-07,  1.1D-07,  1.7D+00, r^2= 2.0D-01
   Bfn.  Coefficient  Atom+Function         Bfn.  Coefficient  Atom+Function  
  ----- ------------  ---------------      ----- ------------  ---------------
     7      0.423146  1 I  py                10      0.401172  1 I  py         
     6      0.376771  1 I  px                 9      0.357205  1 I  px         

 Vector   10  Occ=2.000000D+00  E=-4.615610D+00  Symmetry=e
              MO Center= -1.4D-07, -1.1D-07,  1.7D+00, r^2= 2.0D-01
   Bfn.  Coefficient  Atom+Function         Bfn.  Coefficient  Atom+Function  
  ----- ------------  ---------------      ----- ------------  ---------------
     6      0.423146  1 I  px                 9      0.401172  1 I  px         
     7     -0.376771  1 I  py                10     -0.357205  1 I  py         

 Vector   11  Occ=2.000000D+00  E=-1.665039D+00  Symmetry=a1
              MO Center=  9.4D-17, -8.4D-17,  1.7D+00, r^2= 2.8D-01
   Bfn.  Coefficient  Atom+Function         Bfn.  Coefficient  Atom+Function  
  ----- ------------  ---------------      ----- ------------  ---------------
    26      0.979456  1 I  dzz               21     -0.490028  1 I  dxx        
    24     -0.490028  1 I  dyy               32      0.053917  1 I  dzz        
    27     -0.029016  1 I  dxx               30     -0.029016  1 I  dyy        

 Vector   12  Occ=2.000000D+00  E=-1.664857D+00  Symmetry=e
              MO Center= -7.6D-06,  9.2D-07,  1.7D+00, r^2= 2.8D-01
   Bfn.  Coefficient  Atom+Function         Bfn.  Coefficient  Atom+Function  
  ----- ------------  ---------------      ----- ------------  ---------------
    25      1.604130  1 I  dyz               23      0.554335  1 I  dxz        
    31      0.087725  1 I  dyz               29      0.030315  1 I  dxz        

 Vector   13  Occ=2.000000D+00  E=-1.664857D+00  Symmetry=e
              MO Center=  7.6D-06, -9.2D-07,  1.7D+00, r^2= 2.8D-01
   Bfn.  Coefficient  Atom+Function         Bfn.  Coefficient  Atom+Function  
  ----- ------------  ---------------      ----- ------------  ---------------
    23      1.604130  1 I  dxz               25     -0.554335  1 I  dyz        
    29      0.087725  1 I  dxz               31     -0.030315  1 I  dyz        

 Vector   14  Occ=2.000000D+00  E=-1.664479D+00  Symmetry=e
              MO Center=  3.5D-06,  3.1D-07,  1.7D+00, r^2= 2.8D-01
   Bfn.  Coefficient  Atom+Function         Bfn.  Coefficient  Atom+Function  
  ----- ------------  ---------------      ----- ------------  ---------------
    22      1.595482  1 I  dxy               21      0.289862  1 I  dxx        
    24     -0.289862  1 I  dyy               28      0.086101  1 I  dxy        

 Vector   15  Occ=2.000000D+00  E=-1.664479D+00  Symmetry=e
              MO Center= -3.5D-06, -3.1D-07,  1.7D+00, r^2= 2.8D-01
   Bfn.  Coefficient  Atom+Function         Bfn.  Coefficient  Atom+Function  
  ----- ------------  ---------------      ----- ------------  ---------------
    21      0.797741  1 I  dxx               24     -0.797741  1 I  dyy        
    22     -0.579724  1 I  dxy               27      0.043051  1 I  dxx        
    30     -0.043051  1 I  dyy               28     -0.031285  1 I  dxy        

 Vector   16  Occ=2.000000D+00  E=-7.103836D-01  Symmetry=a1
              MO Center=  4.0D-17,  8.4D-17, -2.7D+00, r^2= 1.0D+00
   Bfn.  Coefficient  Atom+Function         Bfn.  Coefficient  Atom+Function  
  ----- ------------  ---------------      ----- ------------  ---------------
    41      0.666153  2 Cl s                 40     -0.484633  2 Cl s          
    42      0.306334  2 Cl s                 69      0.206875  3 C  s          
    68     -0.100585  3 C  s                 74     -0.097419  3 C  pz         
    39      0.078326  2 Cl s                 52      0.069420  2 Cl pz         
    49      0.067875  2 Cl pz                61      0.043788  2 Cl dzz        

 Vector   17  Occ=2.000000D+00  E=-4.946105D-01  Symmetry=a1
              MO Center=  3.0D-16,  2.2D-16, -1.1D+00, r^2= 2.9D+00
   Bfn.  Coefficient  Atom+Function         Bfn.  Coefficient  Atom+Function  
  ----- ------------  ---------------      ----- ------------  ---------------
    69      0.435649  3 C  s                 41     -0.305803  2 Cl s          
    70      0.275954  3 C  s                  3      0.270474  1 I  s          
    40      0.210914  2 Cl s                 71     -0.206835  3 C  s          
    68     -0.200630  3 C  s                 42     -0.162676  2 Cl s          
    90      0.147867  4 H  s                 98      0.147867  5 H  s          

 Vector   18  Occ=2.000000D+00  E=-4.418067D-01  Symmetry=a1
              MO Center=  1.8D-18,  1.5D-18,  1.2D+00, r^2= 3.1D+00
   Bfn.  Coefficient  Atom+Function         Bfn.  Coefficient  Atom+Function  
  ----- ------------  ---------------      ----- ------------  ---------------
     3      0.801472  1 I  s                  1     -0.404059  1 I  s          
     4      0.369200  1 I  s                  2     -0.347747  1 I  s          
    69     -0.188200  3 C  s                 41      0.130811  2 Cl s          
    40     -0.088852  2 Cl s                 52     -0.089160  2 Cl pz         
    68      0.085379  3 C  s                 49     -0.073145  2 Cl pz         

 Vector   19  Occ=2.000000D+00  E=-2.818040D-01  Symmetry=a1
              MO Center=  2.2D-17,  1.6D-17, -2.1D+00, r^2= 2.8D+00
   Bfn.  Coefficient  Atom+Function         Bfn.  Coefficient  Atom+Function  
  ----- ------------  ---------------      ----- ------------  ---------------
    52      0.471952  2 Cl pz                70     -0.398853  3 C  s          
    49      0.361816  2 Cl pz                74     -0.352171  3 C  pz         
    46      0.210597  2 Cl pz                89     -0.138866  3 C  dzz        
    41     -0.125673  2 Cl s                 90     -0.122104  4 H  s          
    98     -0.122104  5 H  s                106     -0.122104  6 H  s          

 Vector   20  Occ=2.000000D+00  E=-2.615721D-01  Symmetry=e
              MO Center= -5.3D-02,  1.6D-01, -1.6D+00, r^2= 2.1D+00
   Bfn.  Coefficient  Atom+Function         Bfn.  Coefficient  Atom+Function  
  ----- ------------  ---------------      ----- ------------  ---------------
    72      0.364349  3 C  px                50      0.289647  2 Cl px         
    47      0.240595  2 Cl px                98     -0.238227  5 H  s          
    90      0.230821  4 H  s                 75      0.209163  3 C  px         
    44      0.139833  2 Cl px                73      0.087024  3 C  py         
    51      0.069182  2 Cl py                48      0.057466  2 Cl py         

 Vector   21  Occ=2.000000D+00  E=-2.615721D-01  Symmetry=e
              MO Center=  5.3D-02, -1.6D-01, -1.6D+00, r^2= 2.1D+00
   Bfn.  Coefficient  Atom+Function         Bfn.  Coefficient  Atom+Function  
  ----- ------------  ---------------      ----- ------------  ---------------
    73      0.364349  3 C  py                51      0.289647  2 Cl py         
   106     -0.270805  6 H  s                 48      0.240595  2 Cl py         
    76      0.209163  3 C  py                90      0.141817  4 H  s          
    45      0.139833  2 Cl py                98      0.128988  5 H  s          
    72     -0.087024  3 C  px                50     -0.069182  2 Cl px         

 Vector   22  Occ=2.000000D+00  E=-1.649843D-01  Symmetry=e
              MO Center=  8.2D-02,  6.4D-02, -2.4D+00, r^2= 2.6D+00
   Bfn.  Coefficient  Atom+Function         Bfn.  Coefficient  Atom+Function  
  ----- ------------  ---------------      ----- ------------  ---------------
    51      0.394920  2 Cl py                50      0.349419  2 Cl px         
    48      0.311234  2 Cl py                47      0.275375  2 Cl px         
    90     -0.231705  4 H  s                 45      0.177198  2 Cl py         
    73     -0.165778  3 C  py                44      0.156782  2 Cl px         
    72     -0.146678  3 C  px               106      0.128119  6 H  s          

 Vector   23  Occ=2.000000D+00  E=-1.649843D-01  Symmetry=e
              MO Center= -8.2D-02, -6.4D-02, -2.4D+00, r^2= 2.6D+00
   Bfn.  Coefficient  Atom+Function         Bfn.  Coefficient  Atom+Function  
  ----- ------------  ---------------      ----- ------------  ---------------
    50      0.394920  2 Cl px                51     -0.349419  2 Cl py         
    47      0.311234  2 Cl px                48     -0.275375  2 Cl py         
    98      0.207745  5 H  s                106     -0.193581  6 H  s          
    44      0.177198  2 Cl px                72     -0.165778  3 C  px         
    45     -0.156782  2 Cl py                73      0.146678  3 C  py         

 Vector   24  Occ=2.000000D+00  E=-5.212003D-02  Symmetry=e
              MO Center= -1.5D-03,  1.8D-04,  1.7D+00, r^2= 2.7D+00
   Bfn.  Coefficient  Atom+Function         Bfn.  Coefficient  Atom+Function  
  ----- ------------  ---------------      ----- ------------  ---------------
    12      0.531058  1 I  px                15      0.489066  1 I  px         
     9     -0.220070  1 I  px                13     -0.181844  1 I  py         
     6     -0.178345  1 I  px                16     -0.167465  1 I  py         
    18      0.119403  1 I  px                72     -0.093081  3 C  px         
    10      0.075356  1 I  py                75     -0.069465  3 C  px         

 Vector   25  Occ=2.000000D+00  E=-5.212003D-02  Symmetry=e
              MO Center=  1.5D-03, -1.8D-04,  1.7D+00, r^2= 2.7D+00
   Bfn.  Coefficient  Atom+Function         Bfn.  Coefficient  Atom+Function  
  ----- ------------  ---------------      ----- ------------  ---------------
    13      0.531058  1 I  py                16      0.489066  1 I  py         
    10     -0.220070  1 I  py                12      0.181844  1 I  px         
     7     -0.178345  1 I  py                15      0.167465  1 I  px         
    19      0.119403  1 I  py                73     -0.093081  3 C  py         
     9     -0.075356  1 I  px                76     -0.069465  3 C  py         

 Vector   26  Occ=2.000000D+00  E=-4.774345D-02  Symmetry=a1
              MO Center= -8.3D-17, -5.4D-17,  1.6D+00, r^2= 3.4D+00
   Bfn.  Coefficient  Atom+Function         Bfn.  Coefficient  Atom+Function  
  ----- ------------  ---------------      ----- ------------  ---------------
    14      0.566839  1 I  pz                17      0.502449  1 I  pz         
    11     -0.233446  1 I  pz                 8     -0.189207  1 I  pz         
    52     -0.152960  2 Cl pz                69      0.151163  3 C  s          
    70      0.127938  3 C  s                  5      0.118303  1 I  s          
    20      0.104646  1 I  pz                49     -0.105166  2 Cl pz         

 Vector   27  Occ=0.000000D+00  E= 1.194875D-01  Symmetry=a1
              MO Center= -5.6D-15,  4.1D-14, -8.6D-01, r^2= 1.2D+01
   Bfn.  Coefficient  Atom+Function         Bfn.  Coefficient  Atom+Function  
  ----- ------------  ---------------      ----- ------------  ---------------
     5      5.502485  1 I  s                 43      2.625647  2 Cl s          
    71     -2.629425  3 C  s                  4     -2.371394  1 I  s          
    33     -1.277847  1 I  dxx               36     -1.277847  1 I  dyy        
    38     -1.140195  1 I  dzz               70      0.727106  3 C  s          
    42     -0.634768  2 Cl s                 20     -0.508852  1 I  pz         

 Vector   28  Occ=0.000000D+00  E= 1.235601D-01  Symmetry=a1
              MO Center=  9.6D-15, -1.2D-14, -3.2D+00, r^2= 1.3D+01
   Bfn.  Coefficient  Atom+Function         Bfn.  Coefficient  Atom+Function  
  ----- ------------  ---------------      ----- ------------  ---------------
     5      2.069986  1 I  s                 55      1.118836  2 Cl pz         
    71     -1.105493  3 C  s                 42      1.053408  2 Cl s          
    43     -1.026878  2 Cl s                  4     -0.938094  1 I  s          
    70     -0.660130  3 C  s                 38     -0.504005  1 I  dzz        
    33     -0.492970  1 I  dxx               36     -0.492970  1 I  dyy        

 Vector   29  Occ=0.000000D+00  E= 1.505699D-01  Symmetry=a1
              MO Center=  3.4D-17, -8.0D-17,  2.6D+00, r^2= 1.8D+01
   Bfn.  Coefficient  Atom+Function         Bfn.  Coefficient  Atom+Function  
  ----- ------------  ---------------      ----- ------------  ---------------
    71      5.382554  3 C  s                  5      3.555511  1 I  s          
     4     -1.840499  1 I  s                 43     -1.815205  2 Cl s          
    70     -1.542346  3 C  s                 38     -1.466245  1 I  dzz        
    20      1.353966  1 I  pz                55     -1.164656  2 Cl pz         
    33     -0.946219  1 I  dxx               36     -0.946219  1 I  dyy        

 Vector   30  Occ=0.000000D+00  E= 1.631685D-01  Symmetry=e
              MO Center=  2.0D-01,  5.9D-02,  1.5D-01, r^2= 1.6D+01
   Bfn.  Coefficient  Atom+Function         Bfn.  Coefficient  Atom+Function  
  ----- ------------  ---------------      ----- ------------  ---------------
    19      0.831775  1 I  py                88      0.607700  3 C  dyz        
    54      0.540218  2 Cl py                18      0.491834  1 I  px         
    91     -0.453492  4 H  s                 16     -0.364053  1 I  py         
    86      0.359337  3 C  dxz              107      0.327612  6 H  s          
    53      0.319434  2 Cl px                15     -0.215267  1 I  px         

 Vector   31  Occ=0.000000D+00  E= 1.631685D-01  Symmetry=e
              MO Center= -2.0D-01, -5.9D-02,  1.5D-01, r^2= 1.6D+01
   Bfn.  Coefficient  Atom+Function         Bfn.  Coefficient  Atom+Function  
  ----- ------------  ---------------      ----- ------------  ---------------
    18      0.831775  1 I  px                86      0.607700  3 C  dxz        
    53      0.540218  2 Cl px                19     -0.491834  1 I  py         
    99      0.450971  5 H  s                 15     -0.364053  1 I  px         
    88     -0.359337  3 C  dyz              107     -0.334501  6 H  s          
    54     -0.319434  2 Cl py               103      0.220864  5 H  px         

 Vector   32  Occ=0.000000D+00  E= 1.842494D-01  Symmetry=a1
              MO Center= -4.3D-14, -2.6D-13, -9.0D-01, r^2= 1.4D+01
   Bfn.  Coefficient  Atom+Function         Bfn.  Coefficient  Atom+Function  
  ----- ------------  ---------------      ----- ------------  ---------------
     5      5.646877  1 I  s                 71     -4.535686  3 C  s          
     4     -2.442136  1 I  s                 20     -1.259774  1 I  pz         
    33     -1.186095  1 I  dxx               36     -1.186095  1 I  dyy        
    43     -1.119386  2 Cl s                 38     -1.082312  1 I  dzz        
    70      0.949280  3 C  s                 67      0.718096  2 Cl dzz        

 Vector   33  Occ=0.000000D+00  E= 1.884261D-01  Symmetry=e
              MO Center=  6.7D-02,  1.5D-02, -7.3D-01, r^2= 1.8D+01
   Bfn.  Coefficient  Atom+Function         Bfn.  Coefficient  Atom+Function  
  ----- ------------  ---------------      ----- ------------  ---------------
    91      1.012989  4 H  s                 54     -0.920054  2 Cl py         
    19      0.774249  1 I  py               107     -0.761143  6 H  s          
    88     -0.722471  3 C  dyz               53     -0.506085  2 Cl px         
    18      0.425883  1 I  px               112     -0.416244  6 H  py         
    95     -0.404866  4 H  px                96     -0.405575  4 H  py         

 Vector   34  Occ=0.000000D+00  E= 1.884261D-01  Symmetry=e
              MO Center= -6.7D-02, -1.5D-02, -7.3D-01, r^2= 1.8D+01
   Bfn.  Coefficient  Atom+Function         Bfn.  Coefficient  Atom+Function  
  ----- ------------  ---------------      ----- ------------  ---------------
    99      1.024296  5 H  s                 53      0.920054  2 Cl px         
    18     -0.774249  1 I  px               107     -0.730253  6 H  s          
    86      0.722471  3 C  dxz              103      0.559609  5 H  px         
    54     -0.506085  2 Cl py                19      0.425883  1 I  py         
    88     -0.397403  3 C  dyz              112     -0.398706  6 H  py         

 Vector   35  Occ=0.000000D+00  E= 2.202185D-01  Symmetry=e
              MO Center=  3.3D-03,  2.6D-02, -1.3D+00, r^2= 7.7D+00
   Bfn.  Coefficient  Atom+Function         Bfn.  Coefficient  Atom+Function  
  ----- ------------  ---------------      ----- ------------  ---------------
    53      0.676662  2 Cl px                91     -0.635113  4 H  s          
    99      0.506014  5 H  s                 34     -0.392153  1 I  dxy        
    54      0.331300  2 Cl py                35      0.282163  1 I  dxz        
    50     -0.259542  2 Cl px                72      0.254227  3 C  px         
    64      0.245082  2 Cl dxz               63     -0.242186  2 Cl dxy        

 Vector   36  Occ=0.000000D+00  E= 2.202185D-01  Symmetry=e
              MO Center= -3.3D-03, -2.6D-02, -1.3D+00, r^2= 7.7D+00
   Bfn.  Coefficient  Atom+Function         Bfn.  Coefficient  Atom+Function  
  ----- ------------  ---------------      ----- ------------  ---------------
    54      0.676662  2 Cl py               107      0.658830  6 H  s          
    99     -0.441218  5 H  s                 53     -0.331300  2 Cl px         
    37      0.282163  1 I  dyz               51     -0.259542  2 Cl py         
    73      0.254227  3 C  py                66      0.245082  2 Cl dyz        
    76      0.240153  3 C  py               112     -0.233153  6 H  py         

 Vector   37  Occ=0.000000D+00  E= 2.227997D-01  Symmetry=a1
              MO Center= -2.5D-14,  5.2D-14, -2.0D+00, r^2= 1.5D+01
   Bfn.  Coefficient  Atom+Function         Bfn.  Coefficient  Atom+Function  
  ----- ------------  ---------------      ----- ------------  ---------------
    43      2.745658  2 Cl s                 55      2.281956  2 Cl pz         
     5     -2.268517  1 I  s                 70     -1.857835  3 C  s          
     4      1.367811  1 I  s                 20      1.029353  1 I  pz         
    89     -0.967837  3 C  dzz               91      0.538026  4 H  s          
    99      0.538026  5 H  s                107      0.538026  6 H  s          

 Vector   38  Occ=0.000000D+00  E= 2.487243D-01  Symmetry=a1
              MO Center= -1.5D-14,  3.0D-14, -1.2D+00, r^2= 1.2D+01
   Bfn.  Coefficient  Atom+Function         Bfn.  Coefficient  Atom+Function  
  ----- ------------  ---------------      ----- ------------  ---------------
    71     14.811298  3 C  s                  5     -6.736388  1 I  s          
    43     -6.752905  2 Cl s                 70     -4.946746  3 C  s          
     4      2.564397  1 I  s                 55     -2.537302  2 Cl pz         
    33      1.493255  1 I  dxx               36      1.493255  1 I  dyy        
    84     -1.414642  3 C  dxx               87     -1.414642  3 C  dyy        

 Vector   39  Occ=0.000000D+00  E= 2.718308D-01  Symmetry=e
              MO Center= -4.3D-02,  1.6D-01,  7.7D-01, r^2= 8.0D+00
   Bfn.  Coefficient  Atom+Function         Bfn.  Coefficient  Atom+Function  
  ----- ------------  ---------------      ----- ------------  ---------------
    37      0.953888  1 I  dyz               88      0.452657  3 C  dyz        
    76      0.388956  3 C  py                34      0.386823  1 I  dxy        
    54      0.374731  2 Cl py               104     -0.343253  5 H  py         
    33      0.335023  1 I  dxx               36     -0.335023  1 I  dyy        
   107      0.286015  6 H  s                 96     -0.266773  4 H  py         

 Vector   40  Occ=0.000000D+00  E= 2.718308D-01  Symmetry=e
              MO Center=  4.3D-02, -1.6D-01,  7.7D-01, r^2= 8.0D+00
   Bfn.  Coefficient  Atom+Function         Bfn.  Coefficient  Atom+Function  
  ----- ------------  ---------------      ----- ------------  ---------------
    35      0.953888  1 I  dxz               34      0.670046  1 I  dxy        
    86      0.452657  3 C  dxz               75      0.388956  3 C  px         
   111     -0.387420  6 H  px                53      0.374731  2 Cl px         
    37      0.255626  1 I  dyz               91     -0.247701  4 H  s          
    99      0.247692  5 H  s                 63      0.197555  2 Cl dxy        

 Vector   41  Occ=0.000000D+00  E= 3.010231D-01  Symmetry=e
              MO Center= -5.2D-02,  5.4D-02,  3.9D-01, r^2= 9.5D+00
   Bfn.  Coefficient  Atom+Function         Bfn.  Coefficient  Atom+Function  
  ----- ------------  ---------------      ----- ------------  ---------------
    34      0.952513  1 I  dxy               33      0.484999  1 I  dxx        
    36     -0.484999  1 I  dyy               37     -0.486322  1 I  dyz        
    63     -0.460042  2 Cl dxy              107      0.374545  6 H  s          
    91     -0.271032  4 H  s                104      0.257478  5 H  py         
    62     -0.234243  2 Cl dxx               65      0.234243  2 Cl dyy        

 Vector   42  Occ=0.000000D+00  E= 3.010231D-01  Symmetry=e
              MO Center=  5.2D-02, -5.4D-02,  3.9D-01, r^2= 9.5D+00
   Bfn.  Coefficient  Atom+Function         Bfn.  Coefficient  Atom+Function  
  ----- ------------  ---------------      ----- ------------  ---------------
    34      0.969998  1 I  dxy               35     -0.486322  1 I  dxz        
    33     -0.476257  1 I  dxx               36      0.476257  1 I  dyy        
    63     -0.468487  2 Cl dxy               99      0.372724  5 H  s          
    91     -0.276007  4 H  s                111      0.258449  6 H  px         
    62      0.230021  2 Cl dxx               65     -0.230021  2 Cl dyy        

 Vector   43  Occ=0.000000D+00  E= 3.322936D-01  Symmetry=e
              MO Center= -2.3D-01,  1.6D-02, -2.2D+00, r^2= 6.9D+00
   Bfn.  Coefficient  Atom+Function         Bfn.  Coefficient  Atom+Function  
  ----- ------------  ---------------      ----- ------------  ---------------
    64      1.223674  2 Cl dxz               99      1.086315  5 H  s          
   103      0.898289  5 H  px                86      0.694418  3 C  dxz        
   107     -0.633980  6 H  s                105      0.594663  5 H  pz         
   112     -0.534912  6 H  py                35     -0.481714  1 I  dxz        
    66     -0.457859  2 Cl dyz               91     -0.452335  4 H  s          

 Vector   44  Occ=0.000000D+00  E= 3.322936D-01  Symmetry=e
              MO Center=  2.3D-01, -1.6D-02, -2.2D+00, r^2= 6.9D+00
   Bfn.  Coefficient  Atom+Function         Bfn.  Coefficient  Atom+Function  
  ----- ------------  ---------------      ----- ------------  ---------------
    66      1.223674  2 Cl dyz               91     -0.993213  4 H  s          
   107      0.888340  6 H  s                112      0.725300  6 H  py         
    88      0.694418  3 C  dyz               95      0.616264  4 H  px         
    96      0.584394  4 H  py                97     -0.543698  4 H  pz         
    63      0.524164  2 Cl dxy               85     -0.501545  3 C  dxy        

 Vector   45  Occ=0.000000D+00  E= 3.348416D-01  Symmetry=a1
              MO Center=  7.4D-14, -2.8D-14,  1.1D+00, r^2= 1.1D+01
   Bfn.  Coefficient  Atom+Function         Bfn.  Coefficient  Atom+Function  
  ----- ------------  ---------------      ----- ------------  ---------------
     5     10.879647  1 I  s                  4     -4.107968  1 I  s          
    33     -3.665604  1 I  dxx               36     -3.665604  1 I  dyy        
    71      2.548985  3 C  s                 38     -2.442779  1 I  dzz        
    43     -1.367047  2 Cl s                 70     -0.783205  3 C  s          
    55     -0.713140  2 Cl pz                20     -0.622442  1 I  pz         

 Vector   46  Occ=0.000000D+00  E= 3.434670D-01  Symmetry=a1
              MO Center=  7.0D-15, -6.2D-15,  2.4D+00, r^2= 1.1D+01
   Bfn.  Coefficient  Atom+Function         Bfn.  Coefficient  Atom+Function  
  ----- ------------  ---------------      ----- ------------  ---------------
    71     10.000878  3 C  s                 70     -4.394116  3 C  s          
    43     -4.152175  2 Cl s                  5      3.934865  1 I  s          
    38     -3.460358  1 I  dzz                4     -1.932568  1 I  s          
    55     -1.657089  2 Cl pz                33     -1.265533  1 I  dxx        
    36     -1.265533  1 I  dyy               20      1.082526  1 I  pz         

 Vector   47  Occ=0.000000D+00  E= 3.641168D-01  Symmetry=e
              MO Center=  8.2D-02, -7.6D-02, -7.1D-01, r^2= 1.1D+01
   Bfn.  Coefficient  Atom+Function         Bfn.  Coefficient  Atom+Function  
  ----- ------------  ---------------      ----- ------------  ---------------
    37      1.489699  1 I  dyz              107     -0.982028  6 H  s          
    91      0.734517  4 H  s                 63     -0.719940  2 Cl dxy        
    76     -0.671341  3 C  py                88     -0.475327  3 C  dyz        
    19     -0.406642  1 I  py                66      0.369925  2 Cl dyz        
    62     -0.347894  2 Cl dxx               65      0.347894  2 Cl dyy        

 Vector   48  Occ=0.000000D+00  E= 3.641168D-01  Symmetry=e
              MO Center= -8.2D-02,  7.6D-02, -7.1D-01, r^2= 1.1D+01
   Bfn.  Coefficient  Atom+Function         Bfn.  Coefficient  Atom+Function  
  ----- ------------  ---------------      ----- ------------  ---------------
    35      1.489699  1 I  dxz               99     -0.991047  5 H  s          
    91      0.709875  4 H  s                 63     -0.695788  2 Cl dxy        
    75     -0.671341  3 C  px                86     -0.475327  3 C  dxz        
    18     -0.406642  1 I  px                64      0.369925  2 Cl dxz        
    62      0.359970  2 Cl dxx               65     -0.359970  2 Cl dyy        

 Vector   49  Occ=0.000000D+00  E= 4.041894D-01  Symmetry=a1
              MO Center= -4.1D-13,  1.7D-13, -8.5D-01, r^2= 9.3D+00
   Bfn.  Coefficient  Atom+Function         Bfn.  Coefficient  Atom+Function  
  ----- ------------  ---------------      ----- ------------  ---------------
    71     24.644500  3 C  s                 70    -14.644311  3 C  s          
    43     -8.301948  2 Cl s                  5     -4.532966  1 I  s          
    84     -3.087571  3 C  dxx               87     -3.087571  3 C  dyy        
    89     -2.836480  3 C  dzz               55     -2.782857  2 Cl pz         
    42      1.545790  2 Cl s                 38      1.279750  1 I  dzz        

 Vector   50  Occ=0.000000D+00  E= 4.129516D-01  Symmetry=e
              MO Center=  1.1D-01,  2.4D-01, -6.7D-01, r^2= 9.6D+00
   Bfn.  Coefficient  Atom+Function         Bfn.  Coefficient  Atom+Function  
  ----- ------------  ---------------      ----- ------------  ---------------
   107      1.707917  6 H  s                 99     -1.379806  5 H  s          
    37     -1.103562  1 I  dyz               88      1.089886  3 C  dyz        
    76      0.993130  3 C  py                95      0.895514  4 H  px         
    35      0.760480  1 I  dxz               86     -0.751056  3 C  dxz        
    96     -0.728486  4 H  py               112      0.695065  6 H  py         

 Vector   51  Occ=0.000000D+00  E= 4.129516D-01  Symmetry=e
              MO Center= -1.1D-01, -2.4D-01, -6.7D-01, r^2= 9.6D+00
   Bfn.  Coefficient  Atom+Function         Bfn.  Coefficient  Atom+Function  
  ----- ------------  ---------------      ----- ------------  ---------------
    91      1.782698  4 H  s                 99     -1.175501  5 H  s          
   111      1.119252  6 H  px                35      1.103562  1 I  dxz        
    86     -1.089886  3 C  dxz               75     -0.993130  3 C  px         
   104      0.968044  5 H  py                63      0.887405  2 Cl dxy        
    37      0.760480  1 I  dyz               88     -0.751056  3 C  dyz        

 Vector   52  Occ=0.000000D+00  E= 4.284139D-01  Symmetry=a1
              MO Center=  3.2D-14,  2.4D-14, -2.3D+00, r^2= 1.2D+01
   Bfn.  Coefficient  Atom+Function         Bfn.  Coefficient  Atom+Function  
  ----- ------------  ---------------      ----- ------------  ---------------
    71      5.940091  3 C  s                  5     -5.287483  1 I  s          
    43      5.008373  2 Cl s                  4      2.116292  1 I  s          
    42     -2.079092  2 Cl s                 62     -2.066821  2 Cl dxx        
    65     -2.066821  2 Cl dyy               67     -1.771255  2 Cl dzz        
    33      1.330515  1 I  dxx               36      1.330515  1 I  dyy        

 Vector   53  Occ=0.000000D+00  E= 4.608692D-01  Symmetry=a1
              MO Center= -7.2D-15,  3.9D-15, -2.1D+00, r^2= 1.3D+01
   Bfn.  Coefficient  Atom+Function         Bfn.  Coefficient  Atom+Function  
  ----- ------------  ---------------      ----- ------------  ---------------
    70      7.013249  3 C  s                 71     -4.401315  3 C  s          
    89      2.442322  3 C  dzz               67     -1.863076  2 Cl dzz        
    55     -1.735266  2 Cl pz                42     -1.640364  2 Cl s          
    38      1.131050  1 I  dzz               91     -1.115837  4 H  s          
    99     -1.115837  5 H  s                107     -1.115837  6 H  s          

 Vector   54  Occ=0.000000D+00  E= 4.609328D-01  Symmetry=a2
              MO Center= -2.0D-14, -3.0D-14, -7.3D-01, r^2= 6.1D+00
   Bfn.  Coefficient  Atom+Function         Bfn.  Coefficient  Atom+Function  
  ----- ------------  ---------------      ----- ------------  ---------------
   104      1.222778  5 H  py               111     -1.222778  6 H  px         
    95      0.895135  4 H  px                96     -0.895135  4 H  py         
   103      0.327642  5 H  px               112     -0.327642  6 H  py         

 Vector   55  Occ=0.000000D+00  E= 4.889045D-01  Symmetry=e
              MO Center=  1.5D-01, -4.8D-01, -1.1D+00, r^2= 8.1D+00
   Bfn.  Coefficient  Atom+Function         Bfn.  Coefficient  Atom+Function  
  ----- ------------  ---------------      ----- ------------  ---------------
   107      4.347413  6 H  s                112      2.711629  6 H  py         
    76      2.645408  3 C  py                91     -2.241725  4 H  s          
    99     -2.105687  5 H  s                 96      1.253114  4 H  py         
   103     -1.226492  5 H  px                66     -1.199728  2 Cl dyz        
    95      0.792711  4 H  px               111     -0.719474  6 H  px         

 Vector   56  Occ=0.000000D+00  E= 4.889045D-01  Symmetry=e
              MO Center= -1.5D-01,  4.8D-01, -1.1D+00, r^2= 8.1D+00
   Bfn.  Coefficient  Atom+Function         Bfn.  Coefficient  Atom+Function  
  ----- ------------  ---------------      ----- ------------  ---------------
    99     -3.804241  5 H  s                 91      3.725699  4 H  s          
    75     -2.645408  3 C  px               103     -2.418902  5 H  px         
    95     -1.838569  4 H  px                96     -1.561548  4 H  py         
    64      1.199728  2 Cl dxz               76     -0.657858  3 C  py         
   105      0.509165  5 H  pz                97     -0.498653  4 H  pz         

 Vector   57  Occ=0.000000D+00  E= 4.941468D-01  Symmetry=a1
              MO Center= -4.1D-14,  2.9D-16, -1.2D+00, r^2= 8.6D+00
   Bfn.  Coefficient  Atom+Function         Bfn.  Coefficient  Atom+Function  
  ----- ------------  ---------------      ----- ------------  ---------------
    71      6.560042  3 C  s                  5     -4.947406  1 I  s          
    70      3.755988  3 C  s                 91     -2.945487  4 H  s          
    99     -2.945487  5 H  s                107     -2.945487  6 H  s          
    43     -2.866306  2 Cl s                 77      2.726809  3 C  pz         
     4      2.681323  1 I  s                103     -1.604809  5 H  px         

 Vector   58  Occ=0.000000D+00  E= 5.209672D-01  Symmetry=a1
              MO Center=  9.9D-13, -5.0D-13, -1.3D+00, r^2= 1.0D+01
   Bfn.  Coefficient  Atom+Function         Bfn.  Coefficient  Atom+Function  
  ----- ------------  ---------------      ----- ------------  ---------------
    70      9.400039  3 C  s                 71      5.204731  3 C  s          
    91     -3.688004  4 H  s                 99     -3.688004  5 H  s          
   107     -3.688004  6 H  s                 43     -3.011978  2 Cl s          
    97      1.569717  4 H  pz               105      1.569717  5 H  pz         
   113      1.569717  6 H  pz                89     -1.442383  3 C  dzz        

 Vector   59  Occ=0.000000D+00  E= 5.237358D-01  Symmetry=e
              MO Center= -1.1D-02,  1.8D-01, -1.5D+00, r^2= 1.1D+01
   Bfn.  Coefficient  Atom+Function         Bfn.  Coefficient  Atom+Function  
  ----- ------------  ---------------      ----- ------------  ---------------
    91      3.697822  4 H  s                 99     -3.295665  5 H  s          
    86     -2.492102  3 C  dxz               64     -2.152245  2 Cl dxz        
    75     -1.617052  3 C  px                97     -1.537254  4 H  pz         
   105      1.370070  5 H  pz                35     -1.272541  1 I  dxz        
   103     -1.128579  5 H  px                53     -1.109529  2 Cl px         

 Vector   60  Occ=0.000000D+00  E= 5.237358D-01  Symmetry=e
              MO Center=  1.1D-02, -1.8D-01, -1.5D+00, r^2= 1.1D+01
   Bfn.  Coefficient  Atom+Function         Bfn.  Coefficient  Atom+Function  
  ----- ------------  ---------------      ----- ------------  ---------------
   107      4.037692  6 H  s                 88      2.492102  3 C  dyz        
    99     -2.367124  5 H  s                 66      2.152245  2 Cl dyz        
    91     -1.670568  4 H  s                113     -1.678545  6 H  pz         
    76      1.617052  3 C  py               112      1.356021  6 H  py         
    37      1.272541  1 I  dyz               54      1.109529  2 Cl py         

 Vector   61  Occ=0.000000D+00  E= 5.832519D-01  Symmetry=e
              MO Center=  2.6D-02,  8.6D-02, -1.1D+00, r^2= 8.0D+00
   Bfn.  Coefficient  Atom+Function         Bfn.  Coefficient  Atom+Function  
  ----- ------------  ---------------      ----- ------------  ---------------
    91      4.757068  4 H  s                 86     -4.174339  3 C  dxz        
    99     -3.422179  5 H  s                 85     -2.613675  3 C  dxy        
    88     -2.486870  3 C  dyz               97      1.443724  4 H  pz         
   107     -1.334889  6 H  s                 64     -1.095842  2 Cl dxz        
   105     -1.038598  5 H  pz                63      0.945709  2 Cl dxy        

 Vector   62  Occ=0.000000D+00  E= 5.832519D-01  Symmetry=e
              MO Center= -2.6D-02, -8.6D-02, -1.1D+00, r^2= 8.0D+00
   Bfn.  Coefficient  Atom+Function         Bfn.  Coefficient  Atom+Function  
  ----- ------------  ---------------      ----- ------------  ---------------
   107      4.722290  6 H  s                 88      4.174339  3 C  dyz        
    99     -3.517193  5 H  s                 86     -2.486870  3 C  dxz        
   113      1.433170  6 H  pz                84      1.306838  3 C  dxx        
    87     -1.306838  3 C  dyy               91     -1.205097  4 H  s          
    66      1.095842  2 Cl dyz              105     -1.067434  5 H  pz         

 Vector   63  Occ=0.000000D+00  E= 6.240565D-01  Symmetry=e
              MO Center=  1.2D-01, -1.9D-01, -8.5D-01, r^2= 7.4D+00
   Bfn.  Coefficient  Atom+Function         Bfn.  Coefficient  Atom+Function  
  ----- ------------  ---------------      ----- ------------  ---------------
    85      5.199735  3 C  dxy               99      3.991014  5 H  s          
    91     -3.345618  4 H  s                 86     -3.305898  3 C  dxz        
   111      2.756137  6 H  px                84     -2.080156  3 C  dxx        
    87      2.080156  3 C  dyy              105     -2.058660  5 H  pz         
    97      1.725750  4 H  pz                95      1.710170  4 H  px         

 Vector   64  Occ=0.000000D+00  E= 6.240565D-01  Symmetry=e
              MO Center= -1.2D-01,  1.9D-01, -8.5D-01, r^2= 7.4D+00
   Bfn.  Coefficient  Atom+Function         Bfn.  Coefficient  Atom+Function  
  ----- ------------  ---------------      ----- ------------  ---------------
   107      4.235807  6 H  s                 85      4.160312  3 C  dxy        
    88     -3.305898  3 C  dyz               91     -2.676832  4 H  s          
   104      2.643651  5 H  py                84      2.599867  3 C  dxx        
    87     -2.599867  3 C  dyy              113     -2.184930  6 H  pz         
    96      1.935143  4 H  py                99     -1.558974  5 H  s          

 Vector   65  Occ=0.000000D+00  E= 6.348500D-01  Symmetry=a1
              MO Center=  1.5D-14, -1.8D-13,  2.0D-02, r^2= 8.6D+00
   Bfn.  Coefficient  Atom+Function         Bfn.  Coefficient  Atom+Function  
  ----- ------------  ---------------      ----- ------------  ---------------
    71    -17.321247  3 C  s                 70     15.863143  3 C  s          
    43      5.544016  2 Cl s                 84      4.912209  3 C  dxx        
    87      4.912209  3 C  dyy               91     -4.514786  4 H  s          
    99     -4.514786  5 H  s                107     -4.514786  6 H  s          
    42      2.668201  2 Cl s                 77      2.317960  3 C  pz         

 Vector   66  Occ=0.000000D+00  E= 6.597433D-01  Symmetry=a1
              MO Center= -4.3D-14, -2.2D-14, -1.2D+00, r^2= 7.9D+00
   Bfn.  Coefficient  Atom+Function         Bfn.  Coefficient  Atom+Function  
  ----- ------------  ---------------      ----- ------------  ---------------
    70     33.436641  3 C  s                 71    -22.728380  3 C  s          
    91     -9.423567  4 H  s                 99     -9.423567  5 H  s          
   107     -9.423567  6 H  s                 84      7.927722  3 C  dxx        
    87      7.927722  3 C  dyy               43      7.167460  2 Cl s          
    89      6.563031  3 C  dzz               42     -3.692856  2 Cl s          

 Vector   67  Occ=0.000000D+00  E= 7.612963D-01  Symmetry=e
              MO Center=  4.7D-03, -1.2D-02,  1.3D+00, r^2= 5.5D+00
   Bfn.  Coefficient  Atom+Function         Bfn.  Coefficient  Atom+Function  
  ----- ------------  ---------------      ----- ------------  ---------------
   113      2.026644  6 H  pz                16      1.957571  1 I  py         
    88      1.869503  3 C  dyz              107     -1.684010  6 H  s          
    13     -1.488164  1 I  py                85     -1.412050  3 C  dxy        
   104     -1.237643  5 H  py                37     -1.191717  1 I  dyz        
    97     -1.104887  4 H  pz                84     -1.087747  3 C  dxx        

 Vector   68  Occ=0.000000D+00  E= 7.612963D-01  Symmetry=e
              MO Center= -4.7D-03,  1.2D-02,  1.3D+00, r^2= 5.5D+00
   Bfn.  Coefficient  Atom+Function         Bfn.  Coefficient  Atom+Function  
  ----- ------------  ---------------      ----- ------------  ---------------
    85      2.175494  3 C  dxy               15     -1.957571  1 I  px         
    86     -1.869503  3 C  dxz              105     -1.807990  5 H  pz         
    97      1.702260  4 H  pz                99      1.502323  5 H  s          
    12      1.488164  1 I  px                91     -1.414468  4 H  s          
   111      1.313862  6 H  px                35      1.191717  1 I  dxz        

 Vector   69  Occ=0.000000D+00  E= 8.069889D-01  Symmetry=e
              MO Center= -4.9D-02, -7.0D-02,  1.3D+00, r^2= 4.8D+00
   Bfn.  Coefficient  Atom+Function         Bfn.  Coefficient  Atom+Function  
  ----- ------------  ---------------      ----- ------------  ---------------
    31      1.364354  1 I  dyz               29     -1.149048  1 I  dxz        
    37     -1.110028  1 I  dyz               35      0.934857  1 I  dxz        
    84     -0.593824  3 C  dxx               87      0.593824  3 C  dyy        
    25     -0.485972  1 I  dyz              107      0.436563  6 H  s          
   106     -0.427329  6 H  s                 23      0.409282  1 I  dxz        

 Vector   70  Occ=0.000000D+00  E= 8.069889D-01  Symmetry=e
              MO Center=  4.9D-02,  7.0D-02,  1.3D+00, r^2= 4.8D+00
   Bfn.  Coefficient  Atom+Function         Bfn.  Coefficient  Atom+Function  
  ----- ------------  ---------------      ----- ------------  ---------------
    29      1.364354  1 I  dxz               85     -1.187649  3 C  dxy        
    31      1.149048  1 I  dyz               35     -1.110028  1 I  dxz        
    37     -0.934857  1 I  dyz               28      0.622332  1 I  dxy        
    23     -0.485972  1 I  dxz               91     -0.480343  4 H  s          
    90      0.470183  4 H  s                111     -0.450071  6 H  px         

[...]
    4 Stretch                  1     6                       2.92014   -0.00399
    5 Stretch                  2     3                       1.92377   -0.00003
    6 Stretch                  3     4                       1.08691   -0.00045
    7 Stretch                  3     5                       1.08691   -0.00045
    8 Stretch                  3     6                       1.08691   -0.00045
    9 Bend                     1     3     4                75.30643    0.00053
   10 Bend                     1     3     5                75.30643    0.00053
   11 Bend                     1     3     6                75.30643    0.00053
   12 Bend                     1     4     3                83.59106   -0.00095
   13 Bend                     1     5     3                83.59106   -0.00095
   14 Bend                     1     6     3                83.59106   -0.00095
   15 Bend                     2     3     4               104.69357   -0.00053
   16 Bend                     2     3     5               104.69357   -0.00053
   17 Bend                     2     3     6               104.69357   -0.00053
   18 Bend                     3     1     4                21.10251    0.00042
   19 Bend                     3     1     5                21.10251    0.00042
   20 Bend                     3     1     6                21.10251    0.00042
   21 Bend                     4     1     5                36.33570    0.00072
   22 Bend                     4     1     6                36.33570    0.00072
   23 Bend                     4     3     5               113.79672    0.00042
   24 Bend                     4     3     6               113.79672    0.00042
   25 Bend                     5     1     6                36.33570    0.00072
   26 Bend                     5     3     6               113.79672    0.00042
   27 Torsion                  1     4     3     2         180.00000   -0.00000
   28 Torsion                  1     4     3     5          66.28249    0.00074
   29 Torsion                  1     4     3     6         -66.28249   -0.00074
   30 Torsion                  1     5     3     2        -180.00000    0.00000
   31 Torsion                  1     5     3     4         -66.28249   -0.00074
   32 Torsion                  1     5     3     6          66.28249    0.00074
   33 Torsion                  1     6     3     2         180.00000   -0.00000
   34 Torsion                  1     6     3     4          66.28249    0.00074
   35 Torsion                  1     6     3     5         -66.28249   -0.00074
   36 Torsion                  3     4     1     5         -31.75137   -0.00007
   37 Torsion                  3     4     1     6          31.75137    0.00007
   38 Torsion                  3     5     1     4          31.75137    0.00007
   39 Torsion                  3     5     1     6         -31.75137   -0.00007
   40 Torsion                  3     6     1     4         -31.75137   -0.00007
   41 Torsion                  3     6     1     5          31.75137    0.00007
   42 Torsion                  4     1     3     5        -120.00000    0.00000
   43 Torsion                  4     1     3     6         120.00000    0.00000
   44 Torsion                  4     3     1     5         120.00000   -0.00000
   45 Torsion                  4     3     1     6        -120.00000   -0.00000
   46 Torsion                  5     1     3     6        -120.00000    0.00000
   47 Torsion                  5     3     1     6         120.00000   -0.00000

  Internal coordinate gradient after constraints


                                Z-matrix (autoz)
                                -------- 

 Units are Angstrom for bonds and degrees for angles

  Constants are marked with an asterisk (*).

      Type          Name      I     J     K     L     M      Value     Gradient
      ----------- --------  ----- ----- ----- ----- ----- ---------- ----------
    1*Stretch      cccc        1     3                       3.00000    0.00000
    2 Stretch                  1     4                       2.92014    0.00000
    3 Stretch                  1     5                       2.92014    0.00000
    4 Stretch                  1     6                       2.92014    0.00000
    5 Stretch                  2     3                       1.92377   -0.00003
    6 Stretch                  3     4                       1.08691   -0.00000
    7 Stretch                  3     5                       1.08691   -0.00000
    8 Stretch                  3     6                       1.08691   -0.00000
    9 Bend                     1     3     4                75.30643    0.00000
   10 Bend                     1     3     5                75.30643    0.00000
   11 Bend                     1     3     6                75.30643    0.00000
   12 Bend                     1     4     3                83.59106   -0.00000
   13 Bend                     1     5     3                83.59106   -0.00000
   14 Bend                     1     6     3                83.59106   -0.00000
   15 Bend                     2     3     4               104.69357   -0.00000
   16 Bend                     2     3     5               104.69357   -0.00000
   17 Bend                     2     3     6               104.69357   -0.00000
   18 Bend                     3     1     4                21.10251   -0.00000
   19 Bend                     3     1     5                21.10251   -0.00000
   20 Bend                     3     1     6                21.10251   -0.00000
   21 Bend                     4     1     5                36.33570   -0.00000
   22 Bend                     4     1     6                36.33570   -0.00000
   23 Bend                     4     3     5               113.79672    0.00000
   24 Bend                     4     3     6               113.79672    0.00000
   25 Bend                     5     1     6                36.33570   -0.00000
   26 Bend                     5     3     6               113.79672    0.00000
   27 Torsion                  1     4     3     2         180.00000   -0.00000
   28 Torsion                  1     4     3     5          66.28249    0.00000
   29 Torsion                  1     4     3     6         -66.28249   -0.00000
   30 Torsion                  1     5     3     2        -180.00000    0.00000
   31 Torsion                  1     5     3     4         -66.28249   -0.00000
   32 Torsion                  1     5     3     6          66.28249    0.00000
   33 Torsion                  1     6     3     2         180.00000   -0.00000
   34 Torsion                  1     6     3     4          66.28249    0.00000
   35 Torsion                  1     6     3     5         -66.28249   -0.00000
   36 Torsion                  3     4     1     5         -31.75137    0.00000
   37 Torsion                  3     4     1     6          31.75137   -0.00000
   38 Torsion                  3     5     1     4          31.75137   -0.00000
   39 Torsion                  3     5     1     6         -31.75137    0.00000
   40 Torsion                  3     6     1     4         -31.75137    0.00000
   41 Torsion                  3     6     1     5          31.75137   -0.00000
   42 Torsion                  4     1     3     5        -120.00000    0.00000
   43 Torsion                  4     1     3     6         120.00000    0.00000
   44 Torsion                  4     3     1     5         120.00000   -0.00000
   45 Torsion                  4     3     1     6        -120.00000   -0.00000
   46 Torsion                  5     1     3     6        -120.00000    0.00000
   47 Torsion                  5     3     1     6         120.00000   -0.00000



                         Geometry "geometry" -> "geometry"
                         ---------------------------------

 Output coordinates in angstroms (scale by  1.889725989 to convert to a.u.)

  No.       Tag          Charge          X              Y              Z
 ---- ---------------- ---------- -------------- -------------- --------------
    1 I                   53.0000     0.00000000     0.00000000     1.88716539
    2 Cl                  17.0000     0.00000000     0.00000000    -3.03660307
    3 C                    6.0000     0.00000000     0.00000000    -1.11283396
    4 H                    1.0000     0.74342354     0.74342354    -0.83714093
    5 H                    1.0000    -1.01553544     0.27211190    -0.83714093
    6 H                    1.0000     0.27211190    -1.01553544    -0.83714093

      Atomic Mass 
      ----------- 

      I                126.900400
      Cl                34.968850
      C                 12.000000
      H                  1.007825


 Effective nuclear repulsion energy (a.u.)     230.5037122958

            Nuclear Dipole moment (a.u.) 
            ----------------------------
        X                 Y               Z
 ---------------- ---------------- ----------------
    -0.0000000000     0.0000000000    74.0944300938

      Symmetry information
      --------------------

 Group name             C3v       
 Group number             17
 Group order               6
 No. of unique centers     4

      Symmetry unique atoms

     1    2    3    4


                Final and change from initial internal coordinates
                --------------------------------------------------



                                Z-matrix (autoz)
                                -------- 

 Units are Angstrom for bonds and degrees for angles

  Constants are marked with an asterisk (*).

      Type          Name      I     J     K     L     M      Value       Change
      ----------- --------  ----- ----- ----- ----- ----- ---------- ----------
    1*Stretch      cccc        1     3                       3.00000   -0.00000
    2 Stretch                  1     4                       2.92014    0.19508
    3 Stretch                  1     5                       2.92014    0.19508
    4 Stretch                  1     6                       2.92014    0.19508
    5 Stretch                  2     3                       1.92377    0.12242
    6 Stretch                  3     4                       1.08691   -0.19241
    7 Stretch                  3     5                       1.08691   -0.19241
    8 Stretch                  3     6                       1.08691   -0.19241
    9 Bend                     1     3     4                75.30643   10.03273
   10 Bend                     1     3     5                75.30643   10.03273
   11 Bend                     1     3     6                75.30643   10.03273
   12 Bend                     1     4     3                83.59106   -5.89463
   13 Bend                     1     5     3                83.59106   -5.89463
   14 Bend                     1     6     3                83.59106   -5.89463
   15 Bend                     2     3     4               104.69357  -10.03273
   16 Bend                     2     3     5               104.69357  -10.03273
   17 Bend                     2     3     6               104.69357  -10.03273
   18 Bend                     3     1     4                21.10251   -4.13810
   19 Bend                     3     1     5                21.10251   -4.13810
   20 Bend                     3     1     6                21.10251   -4.13810
   21 Bend                     4     1     5                36.33570   -7.00810
   22 Bend                     4     1     6                36.33570   -7.00810
   23 Bend                     4     3     5               113.79672   10.05429
   24 Bend                     4     3     6               113.79672   10.05429
   25 Bend                     5     1     6                36.33570   -7.00810
   26 Bend                     5     3     6               113.79672   10.05429
   27 Torsion                  1     4     3     2         180.00000    0.00000
   28 Torsion                  1     4     3     5          66.28249   12.20542
   29 Torsion                  1     4     3     6         -66.28249  -12.20542
   30 Torsion                  1     5     3     2        -180.00000    0.00000
   31 Torsion                  1     5     3     4         -66.28249  -12.20542
   32 Torsion                  1     5     3     6          66.28249   12.20542
   33 Torsion                  1     6     3     2         180.00000    0.00000
   34 Torsion                  1     6     3     4          66.28249   12.20542
   35 Torsion                  1     6     3     5         -66.28249  -12.20542
   36 Torsion                  3     4     1     5         -31.75137    0.79836
   37 Torsion                  3     4     1     6          31.75137   -0.79836
   38 Torsion                  3     5     1     4          31.75137   -0.79836
   39 Torsion                  3     5     1     6         -31.75137    0.79836
   40 Torsion                  3     6     1     4         -31.75137    0.79836
   41 Torsion                  3     6     1     5          31.75137   -0.79836
   42 Torsion                  4     1     3     5        -120.00000   -0.00000
   43 Torsion                  4     1     3     6         120.00000    0.00000
   44 Torsion                  4     3     1     5         120.00000    0.00000
   45 Torsion                  4     3     1     6        -120.00000   -0.00000
   46 Torsion                  5     1     3     6        -120.00000   -0.00000
   47 Torsion                  5     3     1     6         120.00000    0.00000

 ==============================================================================
                                internuclear distances
 ------------------------------------------------------------------------------
       center one      |      center two      | atomic units |  angstroms
 ------------------------------------------------------------------------------
    3 C                |   2 Cl               |     3.63540  |     1.92377
    4 H                |   3 C                |     2.05395  |     1.08691
    5 H                |   3 C                |     2.05395  |     1.08691
    6 H                |   3 C                |     2.05395  |     1.08691
 ------------------------------------------------------------------------------
                         number of included internuclear distances:          4
 ==============================================================================



 ==============================================================================
                                 internuclear angles
 ------------------------------------------------------------------------------
        center 1       |       center 2       |       center 3       |  degrees
 ------------------------------------------------------------------------------
    2 Cl               |   3 C                |   4 H                |   104.69
    2 Cl               |   3 C                |   5 H                |   104.69
    2 Cl               |   3 C                |   6 H                |   104.69
    4 H                |   3 C                |   5 H                |   113.80
    4 H                |   3 C                |   6 H                |   113.80
    5 H                |   3 C                |   6 H                |   113.80
 ------------------------------------------------------------------------------
                            number of included internuclear angles:          6
 ==============================================================================




 Task  times  cpu:       77.4s     wall:       77.5s


                                NWChem Input Module
                                -------------------


 Summary of allocated global arrays
-----------------------------------
  No active global arrays


MA_summarize_allocated_blocks: starting scan ...
MA_summarize_allocated_blocks: scan completed: 0 heap blocks, 0 stack blocks
MA usage statistics:

	allocation statistics:
					      heap	     stack
					      ----	     -----
	current number of blocks	         0	         0
	maximum number of blocks	        42	        62
	current total bytes		         0	         0
	maximum total bytes		 270303480	  33245960
	maximum total K-bytes		    270304	     33246
	maximum total M-bytes		       271	        34


                                     CITATION
                                     --------
                Please cite the following reference when publishing
                           results obtained with NWChem:

          E. Apra, E. J. Bylaska, W. A. de Jong, N. Govind, K. Kowalski,
       T. P. Straatsma, M. Valiev, H. J. J. van Dam, Y. Alexeev, J. Anchell,
       V. Anisimov, F. W. Aquino, R. Atta-Fynn, J. Autschbach, N. P. Bauman,
     J. C. Becca, D. E. Bernholdt, K. Bhaskaran-Nair, S. Bogatko, P. Borowski,
         J. Boschen, J. Brabec, A. Bruner, E. Cauet, Y. Chen, G. N. Chuev,
      C. J. Cramer, J. Daily, M. J. O. Deegan, T. H. Dunning Jr., M. Dupuis,
   K. G. Dyall, G. I. Fann, S. A. Fischer, A. Fonari, H. Fruchtl, L. Gagliardi,
      J. Garza, N. Gawande, S. Ghosh, K. Glaesemann, A. W. Gotz, J. Hammond,
       V. Helms, E. D. Hermes, K. Hirao, S. Hirata, M. Jacquelin, L. Jensen,
   B. G. Johnson, H. Jonsson, R. A. Kendall, M. Klemm, R. Kobayashi, V. Konkov,
      S. Krishnamoorthy, M. Krishnan, Z. Lin, R. D. Lins, R. J. Littlefield,
      A. J. Logsdail, K. Lopata, W. Ma, A. V. Marenich, J. Martin del Campo,
   D. Mejia-Rodriguez, J. E. Moore, J. M. Mullin, T. Nakajima, D. R. Nascimento,
    J. A. Nichols, P. J. Nichols, J. Nieplocha, A. Otero-de-la-Roza, B. Palmer,
    A. Panyala, T. Pirojsirikul, B. Peng, R. Peverati, J. Pittner, L. Pollack,
   R. M. Richard, P. Sadayappan, G. C. Schatz, W. A. Shelton, D. W. Silverstein,
   D. M. A. Smith, T. A. Soares, D. Song, M. Swart, H. L. Taylor, G. S. Thomas,
            V. Tipparaju, D. G. Truhlar, K. Tsemekhman, T. Van Voorhis,
      A. Vazquez-Mayagoitia, P. Verma, O. Villa, A. Vishnu, K. D. Vogiatzis,
        D. Wang, J. H. Weare, M. J. Williamson, T. L. Windus, K. Wolinski,
        A. T. Wong, Q. Wu, C. Yang, Q. Yu, M. Zacharias, Z. Zhang, Y. Zhao,
                                and R. J. Harrison
                        "NWChem: Past, present, and future
                         J. Chem. Phys. 152, 184102 (2020)
                               doi:10.1063/5.0004997

                                      AUTHORS
                                      -------
  E. Apra, E. J. Bylaska, N. Govind, K. Kowalski, M. Valiev, D. Mejia-Rodriguez,
       A. Kunitsa, N. P. Bauman, A. Panyala, W. A. de Jong, T. P. Straatsma,
   H. J. J. van Dam, D. Wang, T. L. Windus, J. Hammond, J. Autschbach, A. Woods,
    K. Bhaskaran-Nair, J. Brabec, K. Lopata, S. A. Fischer, S. Krishnamoorthy,
     M. Jacquelin, W. Ma, M. Klemm, O. Villa, Y. Chen, V. Anisimov, F. Aquino,
     S. Hirata, M. T. Hackler, E. Hermes, L. Jensen, J. E. Moore, J. C. Becca,
      V. Konjkov, T. Risthaus, M. Malagoli, A. Marenich, A. Otero-de-la-Roza,
        J. Mullin, P. Nichols, R. Peverati, J. Pittner, Y. Zhao, P.-D. Fan,
        A. Fonari, M. J. Williamson, R. J. Harrison, J. R. Rehr, M. Dupuis,
     D. Silverstein, D. M. A. Smith, J. Nieplocha, V. Tipparaju, M. Krishnan,
     B. E. Van Kuiken, A. Vazquez-Mayagoitia, M. Swart, Q. Wu, T. Van Voorhis,
     A. A. Auer, M. Nooijen, L. D. Crosby, E. Brown, G. Cisneros, G. I. Fann,
   H. Fruchtl, J. Garza, K. Hirao, R. A. Kendall, J. A. Nichols, K. Tsemekhman,
    K. Wolinski, J. Anchell, D. E. Bernholdt, P. Borowski, T. Clark, D. Clerc,
   H. Dachsel, M. J. O. Deegan, K. Dyall, D. Elwood, E. Glendening, M. Gutowski,
   A. C. Hess, J. Jaffe, B. G. Johnson, J. Ju, R. Kobayashi, R. Kutteh, Z. Lin,
   R. Littlefield, X. Long, B. Meng, T. Nakajima, S. Niu, L. Pollack, M. Rosing,
   K. Glaesemann, G. Sandrone, M. Stave, H. Taylor, G. Thomas, J. H. van Lenthe,
                               A. T. Wong, Z. Zhang.

 Total times  cpu:       77.5s     wall:       77.6s
