 argument  1 = CH3I_Cl.nw



============================== echo of input deck ==============================
echo

start molecule

title "Title"
charge -1

geometry units angstroms print xyz autosym
I        0.0000000000      0.0000000000      0.3356623600
Cl      -0.0269859503      0.0052847933     -3.5720952320
C        0.0000000000      0.0000000000     -1.8354098500
H        0.2698478700     -1.0070859800     -2.1672635800
H       -1.0070859800      0.2698478700     -2.1672635800
H        0.7372381000      0.7372381000     -2.1672635800
end

geometry adjust
        zcoord
            bond 2 3 3.000 cccc constant
	end
end

basis
  * library def2-svpd
end

ecp
 I library "def2-ecp"
end

dft
xc b3lyp
mult 1
end

driver
default
maxiter 99
xyz CH3I_Cl
end

task dft optimize
================================================================================


                                         
                                         


             Northwest Computational Chemistry Package (NWChem) 7.2.2
             --------------------------------------------------------


                    Environmental Molecular Sciences Laboratory
                       Pacific Northwest National Laboratory
                                Richland, WA 99352

                              Copyright (c) 1994-2022
                       Pacific Northwest National Laboratory
                            Battelle Memorial Institute

             NWChem is an open-source computational chemistry package
                        distributed under the terms of the
                      Educational Community License (ECL) 2.0
             A copy of the license is included with this distribution
                              in the LICENSE.TXT file

                                  ACKNOWLEDGMENT
                                  --------------

            This software and its documentation were developed at the
            EMSL at Pacific Northwest National Laboratory, a multiprogram
            national laboratory, operated for the U.S. Department of Energy
            by Battelle under Contract Number DE-AC05-76RL01830. Support
            for this work was provided by the Department of Energy Office
            of Biological and Environmental Research, Office of Basic
            Energy Sciences, and the Office of Advanced Scientific Computing.


           Job information
           ---------------

    hostname        = iiserb-lab4
    program         = nwchem
    date            = Mon Jul  8 21:45:54 2024

    compiled        = Fri_Jun_07_08:00:10_2024
    source          = /home/conda/feedstock_root/build_artifacts/nwchem_1717738152402/work
    nwchem branch   = 7.2.2
    nwchem revision = 64ba0f0
    ga revision     = 5.8.0
    use scalapack   = T
    input           = CH3I_Cl.nw
    prefix          = molecule.
    data base       = ./molecule.db
    status          = startup
    nproc           =        4
    time left       =     -1s



           Memory information
           ------------------

    heap     =   26214400 doubles =    200.0 Mbytes
    stack    =   26214397 doubles =    200.0 Mbytes
    global   =   52428800 doubles =    400.0 Mbytes (distinct from heap & stack)
    total    =  104857597 doubles =    800.0 Mbytes
    verify   = yes
    hardfail = no 


           Directory information
           ---------------------

  0 permanent = .
  0 scratch   = .




                                NWChem Input Module
                                -------------------


                                       Title
                                       -----

 Scaling coordinates for geometry "geometry" by  1.889725989
 (inverse scale =  0.529177249)

 C1  symmetry detected

          ------
          auto-z
          ------
  Looking for out-of-plane bends
  no constraints, skipping    0.0000000000000000     
  no constraints, skipping    0.0000000000000000     


                             Geometry "geometry" -> ""
                             -------------------------

 Output coordinates in angstroms (scale by  1.889725989 to convert to a.u.)

  No.       Tag          Charge          X              Y              Z
 ---- ---------------- ---------- -------------- -------------- --------------
    1 I                   53.0000    -0.00110509    -1.10086459     0.00000000
    2 Cl                  17.0000    -0.00367526     2.80698891     0.00000000
    3 C                    6.0000     0.01274431     1.07016344    -0.00000001
    4 H                    1.0000     0.47321496     1.39908649    -0.93645255
    5 H                    1.0000    -1.02529083     1.40864575     0.07127219
    6 H                    1.0000     0.59665953     1.39829902     0.86518031

      Atomic Mass 
      ----------- 

      I                126.900400
      Cl                34.968850
      C                 12.000000
      H                  1.007825


 Effective nuclear repulsion energy (a.u.)     286.6351554475

            Nuclear Dipole moment (a.u.) 
            ----------------------------
        X                 Y               Z
 ---------------- ---------------- ----------------
    -0.0000000000     0.0000000000     0.0000000000



                                Z-matrix (autoz)
                                -------- 

 Units are Angstrom for bonds and degrees for angles

      Type          Name      I     J     K     L     M      Value
      ----------- --------  ----- ----- ----- ----- ----- ----------
    1 Stretch                  1     3                       2.17107
    2 Stretch                  2     3                       1.73690
    3 Stretch                  3     4                       1.09415
    4 Stretch                  3     5                       1.09415
    5 Stretch                  3     6                       1.09415
    6 Bend                     1     3     4               107.65579
    7 Bend                     1     3     5               107.65579
    8 Bend                     1     3     6               107.65579
    9 Bend                     2     3     4                72.74484
   10 Bend                     2     3     5                71.43920
   11 Bend                     2     3     6                72.85198
   12 Bend                     4     3     5               111.22403
   13 Bend                     4     3     6               111.22403
   14 Bend                     5     3     6               111.22403


            XYZ format geometry
            -------------------
     6
 geometry
 I                    -0.00110509    -1.10086459     0.00000000
 Cl                   -0.00367526     2.80698891     0.00000000
 C                     0.01274431     1.07016344    -0.00000001
 H                     0.47321496     1.39908649    -0.93645255
 H                    -1.02529083     1.40864575     0.07127219
 H                     0.59665953     1.39829902     0.86518031

 ==============================================================================
                                internuclear distances
 ------------------------------------------------------------------------------
       center one      |      center two      | atomic units |  angstroms
 ------------------------------------------------------------------------------
    3 C                |   1 I                |     4.10273  |     2.17107
    3 C                |   2 Cl               |     3.28227  |     1.73690
    4 H                |   3 C                |     2.06765  |     1.09415
    5 H                |   3 C                |     2.06765  |     1.09415
    6 H                |   3 C                |     2.06765  |     1.09415
 ------------------------------------------------------------------------------
                         number of included internuclear distances:          5
 ==============================================================================



 ==============================================================================
                                 internuclear angles
 ------------------------------------------------------------------------------
        center 1       |       center 2       |       center 3       |  degrees
 ------------------------------------------------------------------------------
    1 I                |   3 C                |   2 Cl               |   179.09
    1 I                |   3 C                |   4 H                |   107.66
    1 I                |   3 C                |   5 H                |   107.66
    1 I                |   3 C                |   6 H                |   107.66
    2 Cl               |   3 C                |   4 H                |    72.74
    2 Cl               |   3 C                |   5 H                |    71.44
    2 Cl               |   3 C                |   6 H                |    72.85
    4 H                |   3 C                |   5 H                |   111.22
    4 H                |   3 C                |   6 H                |   111.22
    5 H                |   3 C                |   6 H                |   111.22
 ------------------------------------------------------------------------------
                            number of included internuclear angles:         10
 ==============================================================================




 Adjusting existing geometry named geometry

 User specification of redundant internal variables 
 --------------------------------------------------

   i   j   k   l     value       name   frz
  --- --- --- --- ------------ -------- ---
    2   3             3.000000 cccc       T

 C1  symmetry detected

          ------
          auto-z
          ------
  Looking for out-of-plane bends


                         Geometry "geometry" -> "geometry"
                         ---------------------------------

 Output coordinates in angstroms (scale by  1.889725989 to convert to a.u.)

  No.       Tag          Charge          X              Y              Z
 ---- ---------------- ---------- -------------- -------------- --------------
    1 I                   53.0000     0.00005190    -1.31136833    -0.00000000
    2 Cl                  17.0000    -0.01279481     3.85952931     0.00000001
    3 C                    6.0000     0.01464921     0.85965484    -0.00000001
    4 H                    1.0000     0.47523315     1.18841924    -0.93645255
    5 H                    1.0000    -1.02326928     1.19849473     0.07127219
    6 H                    1.0000     0.59867745     1.18758925     0.86518031

      Atomic Mass 
      ----------- 

      I                126.900400
      Cl                34.968850
      C                 12.000000
      H                  1.007825


 Effective nuclear repulsion energy (a.u.)     237.7448454157

            Nuclear Dipole moment (a.u.) 
            ----------------------------
        X                 Y               Z
 ---------------- ---------------- ----------------
    -0.1440435983     9.1498814443     0.0000000785



                                Z-matrix (autoz)
                                -------- 

 Units are Angstrom for bonds and degrees for angles

  Constants are marked with an asterisk (*).

      Type          Name      I     J     K     L     M      Value
      ----------- --------  ----- ----- ----- ----- ----- ----------
    1 Stretch                  1     3                       2.17107
    2*Stretch      cccc        2     3                       3.00000
    3 Stretch                  3     4                       1.09415
    4 Stretch                  3     5                       1.09415
    5 Stretch                  3     6                       1.09415
    6 Bend                     1     3     4               107.65579
    7 Bend                     1     3     5               107.65579
    8 Bend                     1     3     6               107.65579
    9 Bend                     2     3     4                72.74584
   10 Bend                     2     3     5                71.43697
   11 Bend                     2     3     6                72.85324
   12 Bend                     4     3     5               111.22403
   13 Bend                     4     3     6               111.22403
   14 Bend                     5     3     6               111.22403


            XYZ format geometry
            -------------------
     6
 geometry
 I                     0.00005190    -1.31136833    -0.00000000
 Cl                   -0.01279481     3.85952931     0.00000001
 C                     0.01464921     0.85965484    -0.00000001
 H                     0.47523315     1.18841924    -0.93645255
 H                    -1.02326928     1.19849473     0.07127219
 H                     0.59867745     1.18758925     0.86518031

 ==============================================================================
                                internuclear distances
 ------------------------------------------------------------------------------
       center one      |      center two      | atomic units |  angstroms
 ------------------------------------------------------------------------------
    3 C                |   1 I                |     4.10273  |     2.17107
    4 H                |   3 C                |     2.06765  |     1.09415
    5 H                |   3 C                |     2.06765  |     1.09415
    6 H                |   3 C                |     2.06765  |     1.09415
 ------------------------------------------------------------------------------
                         number of included internuclear distances:          4
 ==============================================================================



 ==============================================================================
                                 internuclear angles
 ------------------------------------------------------------------------------
        center 1       |       center 2       |       center 3       |  degrees
 ------------------------------------------------------------------------------
    1 I                |   3 C                |   4 H                |   107.66
    1 I                |   3 C                |   5 H                |   107.66
    1 I                |   3 C                |   6 H                |   107.66
    4 H                |   3 C                |   5 H                |   111.22
    4 H                |   3 C                |   6 H                |   111.22
    5 H                |   3 C                |   6 H                |   111.22
 ------------------------------------------------------------------------------
                            number of included internuclear angles:          6
 ==============================================================================



  library name resolved from: environment
  library file name is: </home/iiserb/anaconda3/envs/chemstarx/share/nwchem/libraries/>
  


 Summary of "ao basis" -> "" (cartesian)
 ------------------------------------------------------------------------------
       Tag                 Description            Shells   Functions and Types
 ---------------- ------------------------------  ------  ---------------------
 *                         def2-svpd                  on all atoms 


  library name resolved from: environment
  library file name is: </home/iiserb/anaconda3/envs/chemstarx/share/nwchem/libraries/>
  
                 ECP       "ecp basis" -> "" (cartesian)
                -----
  I (Iodine) Replaces    28 electrons
  -----------------------------------
             Channel    R-exponent     Exponent     Coefficients
         ------------ ---------------------------------------------------------
  1 U L       Both         2.00       19.458609     -21.842040
  1 U L       Both         2.00       19.349260     -28.468191
  1 U L       Both         2.00        4.823767      -0.243713
  1 U L       Both         2.00        4.884315      -0.320804

  2 U-s       Both         2.00       40.015835      49.994293
  2 U-s       Both         2.00       17.429747     281.025317
  2 U-s       Both         2.00        9.005484      61.573326
  2 U-s       Both         2.00       19.458609      21.842040
  2 U-s       Both         2.00       19.349260      28.468191
  2 U-s       Both         2.00        4.823767       0.243713
  2 U-s       Both         2.00        4.884315       0.320804

  3 U-p       Both         2.00       15.355466      67.442841
  3 U-p       Both         2.00       14.971833     134.881137
  3 U-p       Both         2.00        8.960164      14.675051
  3 U-p       Both         2.00        8.259096      29.375666
  3 U-p       Both         2.00       19.458609      21.842040
  3 U-p       Both         2.00       19.349260      28.468191
  3 U-p       Both         2.00        4.823767       0.243713
  3 U-p       Both         2.00        4.884315       0.320804

  4 U-d       Both         2.00       15.068908      35.439529
  4 U-d       Both         2.00       14.555322      53.176057
  4 U-d       Both         2.00        6.718647       9.067195
  4 U-d       Both         2.00        6.456393      13.206937
  4 U-d       Both         2.00        1.191779       0.089335
  4 U-d       Both         2.00        1.291157       0.052380
  4 U-d       Both         2.00       19.458609      21.842040
  4 U-d       Both         2.00       19.349260      28.468191
  4 U-d       Both         2.00        4.823767       0.243713
  4 U-d       Both         2.00        4.884315       0.320804



                           NWChem Geometry Optimization
                           ----------------------------




                                       Title


 maximum gradient threshold         (gmax) =   0.000450
 rms gradient threshold             (grms) =   0.000300
 maximum cartesian step threshold   (xmax) =   0.001800
 rms cartesian step threshold       (xrms) =   0.001200
 fixed trust radius                (trust) =   0.300000
 maximum step size to saddle      (sadstp) =   0.100000
 energy precision                  (eprec) =   5.0D-06
 maximum number of steps          (nptopt) =   99
 initial hessian option           (inhess) =    0
 line search option               (linopt) =    1
 hessian update option            (modupd) =    1
 saddle point option              (modsad) =    0
 initial eigen-mode to follow     (moddir) =    0
 initial variable to follow       (vardir) =    0
 follow first negative mode     (firstneg) =    T
 apply conjugacy                    (opcg) =    F
 source of zmatrix                         =   autoz   


          -------------------
          Energy Minimization
          -------------------


 Names of Z-matrix variables 
    1              2 cccc         3              4              5         
    6              7              8              9             10         
   11             12             13             14         

 Variables with the same non-blank name are constrained to be equal


 Number of frozen variables =    1
           Frozen variables =    2

 Using diagonal initial Hessian 
 Scaling for Hessian diagonals: bonds = 1.00  angles = 0.25  torsions = 0.10

          --------
          Step   0
          --------


                         Geometry "geometry" -> "geometry"
                         ---------------------------------

 Output coordinates in angstroms (scale by  1.889725989 to convert to a.u.)

  No.       Tag          Charge          X              Y              Z
 ---- ---------------- ---------- -------------- -------------- --------------
    1 I                   53.0000     0.00005190    -1.31136833    -0.00000000
    2 Cl                  17.0000    -0.01279481     3.85952931     0.00000001
    3 C                    6.0000     0.01464921     0.85965484    -0.00000001
    4 H                    1.0000     0.47523315     1.18841924    -0.93645255
    5 H                    1.0000    -1.02326928     1.19849473     0.07127219
    6 H                    1.0000     0.59867745     1.18758925     0.86518031

      Atomic Mass 
      ----------- 

      I                126.900400
      Cl                34.968850
      C                 12.000000
      H                  1.007825


 Effective nuclear repulsion energy (a.u.)     237.7448454157

            Nuclear Dipole moment (a.u.) 
            ----------------------------
        X                 Y               Z
 ---------------- ---------------- ----------------
    -0.1440435983     9.1498814443     0.0000000785


                                 NWChem DFT Module
                                 -----------------


                                       Title


                      Basis "ao basis" -> "ao basis" (cartesian)
                      -----
  I (Iodine)
  ----------
            Exponent  Coefficients 
       -------------- ---------------------------------------------------------
  1 S  4.45904892E+02  0.002004
  1 S  2.33368424E+01 -0.149894
  1 S  1.95834461E+01  0.364365
  1 S  8.51120892E+00 -0.755381
  1 S  2.19961619E+00  0.828164
  1 S  1.06689705E+00  0.421610

  2 S  1.17205476E+01 -0.016160
  2 S  1.76259864E+00  0.352715

  3 S  2.86974763E-01  1.000000

  4 S  1.12276096E-01  1.000000

  5 S  4.51236355E-02  1.000000

  6 P  2.04990273E+01  0.077159
  6 P  1.05587546E+01 -0.383704
  6 P  1.50158955E+00  0.835542
  6 P  6.45971731E-01  0.167873

  7 P  3.02886568E+00  1.000000

  8 P  3.45065918E-01  1.000000

  9 P  1.11345138E-01  1.000000

 10 P  2.97955072E-02  1.000000

 11 D  5.12353549E+01  0.004035
 11 D  1.56162395E+01 -0.005077
 11 D  4.52660021E+00  0.291511
 11 D  2.05298088E+00  0.511458
 11 D  8.76402816E-01  0.312320

 12 D  3.09000000E-01  1.000000

 13 D  7.79872552E-02  1.000000

  Cl (Chlorine)
  -------------
            Exponent  Coefficients 
       -------------- ---------------------------------------------------------
  1 S  1.04498276E+04  0.001971
  1 S  1.57173652E+03  0.014755
  1 S  3.57120655E+02  0.066679
  1 S  1.00251859E+02  0.172289
  1 S  3.08127276E+01  0.158838

  2 S  5.19237894E+01 -0.100093
  2 S  5.70457610E+00  0.608418
  2 S  2.35083768E+00  0.543522

  3 S  4.46051247E-01  1.000000

  4 S  1.68488562E-01  1.000000

  5 S  5.53442294E-02  1.000000

  6 P  3.07667906E+02 -0.008780
  6 P  7.21020155E+01 -0.063563
  6 P  2.25326803E+01 -0.240164
  6 P  7.89917654E+00 -0.477989
  6 P  2.87672683E+00 -0.385159

  7 P  7.74593640E-01  1.000000

  8 P  2.10376997E-01  1.000000

  9 P  5.00462711E-02  1.000000

 10 D  6.50000000E-01  1.000000

 11 D  1.22848034E-01  1.000000

  C (Carbon)
  ----------
            Exponent  Coefficients 
       -------------- ---------------------------------------------------------
  1 S  1.23840169E+03  0.005457
  1 S  1.86290050E+02  0.040638
  1 S  4.22511763E+01  0.180256
  1 S  1.16765579E+01  0.463151
  1 S  3.59305065E+00  0.440872

  2 S  4.02451474E-01  1.000000

  3 S  1.30901827E-01  1.000000

  4 S  6.70535403E-02  1.000000

  5 P  9.46809706E+00  0.038388
  5 P  2.01035451E+00  0.211170
  5 P  5.47710047E-01  0.513282

  6 P  1.52686138E-01  1.000000

  7 D  8.00000000E-01  1.000000

  8 D  1.17131851E-01  1.000000

  H (Hydrogen)
  ------------
            Exponent  Coefficients 
       -------------- ---------------------------------------------------------
  1 S  1.30107010E+01  0.019682
  1 S  1.96225720E+00  0.137965
  1 S  4.44537960E-01  0.478319

  2 S  1.21949620E-01  1.000000

  3 P  8.00000000E-01  1.000000

  4 P  1.17040991E-01  1.000000



 Summary of "ao basis" -> "ao basis" (cartesian)
 ------------------------------------------------------------------------------
       Tag                 Description            Shells   Functions and Types
 ---------------- ------------------------------  ------  ---------------------
 I                         def2-svpd                13       38   5s5p3d
 Cl                        def2-svpd                11       29   5s4p2d
 C                         def2-svpd                 8       22   4s2p2d
 H                         def2-svpd                 4        8   2s2p




 Summary of "ao basis" -> "ao basis" (cartesian)
 ------------------------------------------------------------------------------
       Tag                 Description            Shells   Functions and Types
 ---------------- ------------------------------  ------  ---------------------
 I                         def2-svpd                13       38   5s5p3d
 Cl                        def2-svpd                11       29   5s4p2d
 C                         def2-svpd                 8       22   4s2p2d
 H                         def2-svpd                 4        8   2s2p


  Caching 1-el integrals 

            General Information
            -------------------
          SCF calculation type: DFT
          Wavefunction type:  closed shell.
          No. of atoms     :     6
          No. of electrons :    52
           Alpha electrons :    26
            Beta electrons :    26
          Charge           :    -1
          Spin multiplicity:     1
          Use of symmetry is: off; symmetry adaption is: off
          Maximum number of iterations:  50
          AO basis - number of functions:   113
                     number of shells:    44
          Convergence on energy requested:  1.00D-06
          Convergence on density requested:  1.00D-05
          Convergence on gradient requested:  5.00D-04

              XC Information
              --------------
                         B3LYP Method XC Potential
                     Hartree-Fock (Exact) Exchange  0.200          
                        Slater Exchange Functional  0.800 local    
                    Becke 1988 Exchange Functional  0.720 non-local
              Lee-Yang-Parr Correlation Functional  0.810          
                  VWN I RPA Correlation Functional  0.190 local    

             Grid Information
             ----------------
          Grid used for XC integration:  medium    
          Radial quadrature: Mura-Knowles        
          Angular quadrature: Lebedev. 
          Tag              B.-S. Rad. Rad. Pts. Rad. Cut. Ang. Pts.
          ---              ---------- --------- --------- ---------
          I                   1.40      123          15.0       590
          Cl                  1.00       88          17.0       590
          C                   0.70       49          12.0       434
          H                   0.35       45          11.0       434
          Grid pruning is: on 
          Number of quadrature shells:   395
          Spatial weights used:  Erf1

          Convergence Information
          -----------------------
          Convergence aids based upon iterative change in 
          total energy or number of iterations. 
          Levelshifting, if invoked, occurs when the 
          HOMO/LUMO gap drops below (HL_TOL):  1.00D-02
          DIIS, if invoked, will attempt to extrapolate 
          using up to (NFOCK): 10 stored Fock matrices.

                    Damping( 0%)  Levelshifting(0.5)       DIIS
                  --------------- ------------------- ---------------
          dE  on:    start            ASAP                start   
          dE off:    2 iters         50 iters            50 iters 


      Screening Tolerance Information
      -------------------------------
          Density screening/tol_rho:  1.00D-10
          AO Gaussian exp screening on grid/accAOfunc:  14
          CD Gaussian exp screening on grid/accCDfunc:  20
          XC Gaussian exp screening on grid/accXCfunc:  20
          Schwarz screening/accCoul:  1.00D-08


      Superposition of Atomic Density Guess
      -------------------------------------

 Sum of atomic energies:        -845.57913955

 Renormalizing density from      51.00 to     52

      Non-variational initial energy
      ------------------------------

 Total energy =    -802.950449
 1-e energy   =   -1494.966763
 2-e energy   =     560.326429
 HOMO         =      -0.062205
 LUMO         =       0.168693

  WARNING: movecs_in_org=atomic not equal to movecs_in=./molecule.movecs
   Time after variat. SCF:      0.4
   Time prior to 1st pass:      0.4

 Grid_pts file          = ./molecule.gridpts.0
 Record size in doubles =  12289        No. of grid_pts per rec  =   3070
 Max. records in memory =     22        Max. recs in file   = 253312716


           Memory utilization after 1st SCF pass: 
           Heap Space remaining (MW):        0.00                 452
          Stack Space remaining (MW):       26.21            26213652

   convergence    iter        energy       DeltaE   RMS-Dens  Diis-err    time
 ---------------- ----- ----------------- --------- --------- ---------  ------
 d= 0,ls=0.0,diis     1   -797.7269230035 -9.29D+02  2.42D-02  1.11D+00     1.5
 d= 0,ls=0.0,diis     2   -797.5843154904  1.43D-01  1.64D-02  1.75D+00     2.5
 d= 0,ls=0.0,diis     3   -797.8339595172 -2.50D-01  3.92D-03  1.67D-01     3.5
 d= 0,ls=0.0,diis     4   -797.8573928439 -2.34D-02  1.19D-03  8.90D-03     4.5
 d= 0,ls=0.0,diis     5   -797.8584569962 -1.06D-03  5.21D-04  7.56D-04     5.5
  Resetting Diis
 d= 0,ls=0.0,diis     6   -797.8585816791 -1.25D-04  1.11D-04  1.50D-04     6.5
 d= 0,ls=0.0,diis     7   -797.8586022439 -2.06D-05  2.91D-05  1.24D-06     7.5
 d= 0,ls=0.0,diis     8   -797.8586022096  3.43D-08  1.16D-05  1.83D-06     8.6
 d= 0,ls=0.0,diis     9   -797.8586024772 -2.68D-07  2.48D-06  2.82D-08     9.6


         Total DFT energy =     -797.858602477166
      One electron energy =    -1478.188063258567
           Coulomb energy =      605.893435194700
    Exchange-Corr. energy =      -57.253859549995
 Nuclear repulsion energy =      131.689885136695

 Numeric. integr. density =       52.000005568387

     Total iterative time =      9.2s



                       DFT Final Molecular Orbital Analysis
                       ------------------------------------

 Vector    1  Occ=2.000000D+00  E=-1.012526D+02
              MO Center= -1.3D-02,  3.9D+00,  1.1D-08, r^2= 3.2D-03
   Bfn.  Coefficient  Atom+Function         Bfn.  Coefficient  Atom+Function  
  ----- ------------  ---------------      ----- ------------  ---------------
    39      0.993389  2 Cl s                 40      0.030473  2 Cl s          
    41     -0.025495  2 Cl s          

 Vector    2  Occ=2.000000D+00  E=-1.010071D+01
              MO Center=  1.5D-02,  8.6D-01, -1.2D-08, r^2= 2.8D-02
   Bfn.  Coefficient  Atom+Function         Bfn.  Coefficient  Atom+Function  
  ----- ------------  ---------------      ----- ------------  ---------------
    68      0.987378  3 C  s                 71     -0.117917  3 C  s          
    69      0.065401  3 C  s                 70      0.043964  3 C  s          
    84      0.038694  3 C  dxx               89      0.038826  3 C  dzz        
    87      0.036975  3 C  dyy                5      0.033001  1 I  s          

 Vector    3  Occ=2.000000D+00  E=-9.182711D+00
              MO Center= -1.3D-02,  3.9D+00,  1.8D-08, r^2= 6.6D-02
   Bfn.  Coefficient  Atom+Function         Bfn.  Coefficient  Atom+Function  
  ----- ------------  ---------------      ----- ------------  ---------------
    40      1.013655  2 Cl s                 39     -0.311088  2 Cl s          
    41      0.071039  2 Cl s          

 Vector    4  Occ=2.000000D+00  E=-6.946871D+00
              MO Center= -1.3D-02,  3.9D+00,  9.1D-09, r^2= 5.8D-02
   Bfn.  Coefficient  Atom+Function         Bfn.  Coefficient  Atom+Function  
  ----- ------------  ---------------      ----- ------------  ---------------
    45      0.980618  2 Cl py                48     -0.052210  2 Cl py         

 Vector    5  Occ=2.000000D+00  E=-6.946349D+00
              MO Center= -1.3D-02,  3.9D+00,  7.3D-09, r^2= 5.8D-02
   Bfn.  Coefficient  Atom+Function         Bfn.  Coefficient  Atom+Function  
  ----- ------------  ---------------      ----- ------------  ---------------
    44      0.975880  2 Cl px                46     -0.099275  2 Cl pz         
    47     -0.050258  2 Cl px         

 Vector    6  Occ=2.000000D+00  E=-6.946347D+00
              MO Center= -1.3D-02,  3.9D+00,  1.1D-08, r^2= 5.8D-02
   Bfn.  Coefficient  Atom+Function         Bfn.  Coefficient  Atom+Function  
  ----- ------------  ---------------      ----- ------------  ---------------
    46      0.976039  2 Cl pz                44      0.099259  2 Cl px         
    49     -0.050257  2 Cl pz         

 Vector    7  Occ=2.000000D+00  E=-6.711666D+00
              MO Center=  6.8D-05, -1.3D+00, -1.2D-09, r^2= 1.8D-01
   Bfn.  Coefficient  Atom+Function         Bfn.  Coefficient  Atom+Function  
  ----- ------------  ---------------      ----- ------------  ---------------
     1      0.934576  1 I  s                  2      0.082837  1 I  s          
     3      0.034042  1 I  s          

 Vector    8  Occ=2.000000D+00  E=-4.736515D+00
              MO Center=  4.7D-05, -1.3D+00, -1.7D-11, r^2= 2.0D-01
   Bfn.  Coefficient  Atom+Function         Bfn.  Coefficient  Atom+Function  
  ----- ------------  ---------------      ----- ------------  ---------------
     7      0.566497  1 I  py                10      0.536723  1 I  py         

 Vector    9  Occ=2.000000D+00  E=-4.724813D+00
              MO Center=  6.5D-05, -1.3D+00,  1.4D-07, r^2= 2.0D-01
   Bfn.  Coefficient  Atom+Function         Bfn.  Coefficient  Atom+Function  
  ----- ------------  ---------------      ----- ------------  ---------------
     8      0.561910  1 I  pz                11      0.532862  1 I  pz         
     6      0.072560  1 I  px                 9      0.068809  1 I  px         

 Vector   10  Occ=2.000000D+00  E=-4.724813D+00
              MO Center=  5.4D-05, -1.3D+00, -1.4D-07, r^2= 2.0D-01
   Bfn.  Coefficient  Atom+Function         Bfn.  Coefficient  Atom+Function  
  ----- ------------  ---------------      ----- ------------  ---------------
     6      0.561895  1 I  px                 9      0.532848  1 I  px         
     8     -0.072562  1 I  pz                11     -0.068811  1 I  pz         

 Vector   11  Occ=2.000000D+00  E=-1.784913D+00
              MO Center=  5.0D-05, -1.3D+00,  9.7D-10, r^2= 2.8D-01
   Bfn.  Coefficient  Atom+Function         Bfn.  Coefficient  Atom+Function  
  ----- ------------  ---------------      ----- ------------  ---------------
    24      0.979260  1 I  dyy               21     -0.488757  1 I  dxx        
    26     -0.488842  1 I  dzz               70     -0.112621  3 C  s          
    30      0.055690  1 I  dyy                4      0.047388  1 I  s          
    91      0.034815  4 H  s                107      0.034838  6 H  s          
    99      0.034533  5 H  s                 87     -0.032188  3 C  dyy        

 Vector   12  Occ=2.000000D+00  E=-1.781043D+00
              MO Center=  3.9D-05, -1.3D+00, -5.3D-07, r^2= 2.8D-01
   Bfn.  Coefficient  Atom+Function         Bfn.  Coefficient  Atom+Function  
  ----- ------------  ---------------      ----- ------------  ---------------
    25      1.682674  1 I  dyz               22      0.221453  1 I  dxy        
    31      0.093317  1 I  dyz        

 Vector   13  Occ=2.000000D+00  E=-1.781042D+00
              MO Center=  5.4D-05, -1.3D+00,  5.3D-07, r^2= 2.8D-01
   Bfn.  Coefficient  Atom+Function         Bfn.  Coefficient  Atom+Function  
  ----- ------------  ---------------      ----- ------------  ---------------
    22      1.682540  1 I  dxy               25     -0.221470  1 I  dyz        
    28      0.093320  1 I  dxy        

 Vector   14  Occ=2.000000D+00  E=-1.771134D+00
              MO Center=  5.5D-05, -1.3D+00,  7.6D-07, r^2= 2.8D-01
   Bfn.  Coefficient  Atom+Function         Bfn.  Coefficient  Atom+Function  
  ----- ------------  ---------------      ----- ------------  ---------------
    23      1.698189  1 I  dxz               29      0.090460  1 I  dxz        

 Vector   15  Occ=2.000000D+00  E=-1.771134D+00
              MO Center=  4.8D-05, -1.3D+00, -7.5D-07, r^2= 2.8D-01
   Bfn.  Coefficient  Atom+Function         Bfn.  Coefficient  Atom+Function  
  ----- ------------  ---------------      ----- ------------  ---------------
    21      0.849075  1 I  dxx               26     -0.849113  1 I  dzz        
    27      0.045222  1 I  dxx               32     -0.045229  1 I  dzz        

 Vector   16  Occ=2.000000D+00  E=-6.128992D-01
              MO Center=  8.4D-03, -1.3D-01, -1.6D-07, r^2= 2.0D+00
   Bfn.  Coefficient  Atom+Function         Bfn.  Coefficient  Atom+Function  
  ----- ------------  ---------------      ----- ------------  ---------------
     3      0.598142  1 I  s                 70      0.410732  3 C  s          
    69      0.356723  3 C  s                  1     -0.296061  1 I  s          
     2     -0.250022  1 I  s                 68     -0.174864  3 C  s          
    71     -0.159515  3 C  s                 90      0.119500  4 H  s          
    98      0.119189  5 H  s                106      0.119525  6 H  s          

 Vector   17  Occ=2.000000D+00  E=-5.194719D-01
              MO Center= -6.2D-03,  2.5D+00,  5.9D-07, r^2= 5.1D+00
   Bfn.  Coefficient  Atom+Function         Bfn.  Coefficient  Atom+Function  
  ----- ------------  ---------------      ----- ------------  ---------------
    41      0.598532  2 Cl s                 70      0.471232  3 C  s          
    40     -0.438051  2 Cl s                  3     -0.374660  1 I  s          
    42      0.288917  2 Cl s                  4     -0.268990  1 I  s          
     1      0.188717  1 I  s                 69      0.189475  3 C  s          
     2      0.164323  1 I  s                 71     -0.151561  3 C  s          

 Vector   18  Occ=2.000000D+00  E=-5.023804D-01
              MO Center=  2.1D-03,  1.2D+00, -7.3D-07, r^2= 5.7D+00
   Bfn.  Coefficient  Atom+Function         Bfn.  Coefficient  Atom+Function  
  ----- ------------  ---------------      ----- ------------  ---------------
    70      0.583537  3 C  s                  3     -0.495699  1 I  s          
    41     -0.434740  2 Cl s                  4     -0.342503  1 I  s          
    69      0.318572  3 C  s                 40      0.316241  2 Cl s          
     1      0.248173  1 I  s                 71     -0.232328  3 C  s          
    42     -0.227087  2 Cl s                  2      0.216881  1 I  s          

 Vector   19  Occ=2.000000D+00  E=-2.933920D-01
              MO Center=  2.4D-01,  8.9D-01, -3.6D-04, r^2= 1.4D+00
   Bfn.  Coefficient  Atom+Function         Bfn.  Coefficient  Atom+Function  
  ----- ------------  ---------------      ----- ------------  ---------------
    74      0.448206  3 C  pz               106      0.311712  6 H  s          
    90     -0.299867  4 H  s                 77      0.175129  3 C  pz         
    14      0.115014  1 I  pz                88     -0.074972  3 C  dyz        
   107      0.072789  6 H  s                 91     -0.069990  4 H  s          
    17      0.062351  1 I  pz                11     -0.047792  1 I  pz         

 Vector   20  Occ=2.000000D+00  E=-2.931892D-01
              MO Center= -2.1D-01,  9.0D-01,  3.6D-04, r^2= 1.4D+00
   Bfn.  Coefficient  Atom+Function         Bfn.  Coefficient  Atom+Function  
  ----- ------------  ---------------      ----- ------------  ---------------
    72      0.448367  3 C  px                98     -0.352711  5 H  s          
    90      0.186640  4 H  s                 75      0.175736  3 C  px         
   106      0.166155  6 H  s                 12      0.115218  1 I  px         
    99     -0.080322  5 H  s                 85     -0.073583  3 C  dxy        
    15      0.062694  1 I  px                 9     -0.047873  1 I  px         

 Vector   21  Occ=2.000000D+00  E=-2.249157D-01
              MO Center=  5.1D-03, -4.4D-01,  1.0D-07, r^2= 3.1D+00
   Bfn.  Coefficient  Atom+Function         Bfn.  Coefficient  Atom+Function  
  ----- ------------  ---------------      ----- ------------  ---------------
    70      0.679608  3 C  s                 13     -0.481244  1 I  py         
    73      0.362149  3 C  py                71     -0.339514  3 C  s          
    16     -0.329895  1 I  py                76      0.253108  3 C  py         
    91     -0.213035  4 H  s                107     -0.213129  6 H  s          
    99     -0.211897  5 H  s                 10      0.195236  1 I  py         

 Vector   22  Occ=2.000000D+00  E=-1.377914D-01
              MO Center=  1.2D-02, -1.2D+00,  5.1D-05, r^2= 2.4D+00
   Bfn.  Coefficient  Atom+Function         Bfn.  Coefficient  Atom+Function  
  ----- ------------  ---------------      ----- ------------  ---------------
    14      0.593941  1 I  pz                17      0.512916  1 I  pz         
    11     -0.240331  1 I  pz                 8     -0.194571  1 I  pz         
    74     -0.111851  3 C  pz               106     -0.102927  6 H  s          
    90      0.098747  4 H  s                107     -0.090419  6 H  s          
    91      0.086760  4 H  s                 20      0.065747  1 I  pz         

 Vector   23  Occ=2.000000D+00  E=-1.377763D-01
              MO Center= -1.0D-02, -1.2D+00, -5.1D-05, r^2= 2.4D+00
   Bfn.  Coefficient  Atom+Function         Bfn.  Coefficient  Atom+Function  
  ----- ------------  ---------------      ----- ------------  ---------------
    12      0.593859  1 I  px                15      0.512793  1 I  px         
     9     -0.240300  1 I  px                 6     -0.194546  1 I  px         
    98      0.116423  5 H  s                 72     -0.112050  3 C  px         
    99      0.101631  5 H  s                 18      0.065794  1 I  px         
    14     -0.062144  1 I  pz                90     -0.061855  4 H  s          

 Vector   24  Occ=2.000000D+00  E=-6.054799D-02
              MO Center= -1.8D-02,  3.7D+00,  1.4D-04, r^2= 2.2D+00
   Bfn.  Coefficient  Atom+Function         Bfn.  Coefficient  Atom+Function  
  ----- ------------  ---------------      ----- ------------  ---------------
    51      0.437669  2 Cl py                50     -0.379650  2 Cl px         
    48      0.339366  2 Cl py                47     -0.297530  2 Cl px         
    45      0.197342  2 Cl py                70      0.174215  3 C  s          
    44     -0.172717  2 Cl px                54      0.129913  2 Cl py         
    16     -0.126174  1 I  py                53     -0.120501  2 Cl px         

 Vector   25  Occ=2.000000D+00  E=-6.050326D-02
              MO Center= -1.2D-02,  3.8D+00, -5.5D-04, r^2= 1.5D+00
   Bfn.  Coefficient  Atom+Function         Bfn.  Coefficient  Atom+Function  
  ----- ------------  ---------------      ----- ------------  ---------------
    52      0.579795  2 Cl pz                49      0.454418  2 Cl pz         
    46      0.263783  2 Cl pz                55      0.184036  2 Cl pz         
    74     -0.041558  3 C  pz                17      0.028408  1 I  pz         
    51     -0.027134  2 Cl py                77     -0.025258  3 C  pz         

 Vector   26  Occ=2.000000D+00  E=-6.048860D-02
              MO Center= -7.7D-03,  3.8D+00,  4.1D-04, r^2= 2.0D+00
   Bfn.  Coefficient  Atom+Function         Bfn.  Coefficient  Atom+Function  
  ----- ------------  ---------------      ----- ------------  ---------------
    50      0.438948  2 Cl px                51      0.377593  2 Cl py         
    47      0.344086  2 Cl px                48      0.292835  2 Cl py         
    44      0.199731  2 Cl px                45      0.170277  2 Cl py         
    70      0.144954  3 C  s                 53      0.139221  2 Cl px         
    54      0.112132  2 Cl py                16     -0.107169  1 I  py         

 Vector   27  Occ=0.000000D+00  E= 8.111226D-02
              MO Center= -4.3D-03, -1.8D+00, -2.3D-07, r^2= 8.8D+00
   Bfn.  Coefficient  Atom+Function         Bfn.  Coefficient  Atom+Function  
  ----- ------------  ---------------      ----- ------------  ---------------
    71      1.757469  3 C  s                  5      1.205309  1 I  s          
     4     -0.986261  1 I  s                 19     -0.884212  1 I  py         
    70     -0.649457  3 C  s                 16     -0.407222  1 I  py         
    33     -0.390075  1 I  dxx               38     -0.390015  1 I  dzz        
    73     -0.342424  3 C  py                36     -0.332676  1 I  dyy        

 Vector   28  Occ=0.000000D+00  E= 1.049489D-01
              MO Center=  2.7D-02, -9.9D-01,  5.6D-06, r^2= 1.1D+01
   Bfn.  Coefficient  Atom+Function         Bfn.  Coefficient  Atom+Function  
  ----- ------------  ---------------      ----- ------------  ---------------
     5      7.107573  1 I  s                  4     -3.072954  1 I  s          
    36     -1.779812  1 I  dyy               33     -1.541831  1 I  dxx        
    38     -1.541792  1 I  dzz               71     -1.299566  3 C  s          
    70      0.729492  3 C  s                 43      0.500013  2 Cl s          
     3     -0.285862  1 I  s                 89      0.236326  3 C  dzz        

 Vector   29  Occ=0.000000D+00  E= 1.369858D-01
              MO Center=  2.2D-02, -1.5D+00, -2.0D-03, r^2= 1.4D+01
   Bfn.  Coefficient  Atom+Function         Bfn.  Coefficient  Atom+Function  
  ----- ------------  ---------------      ----- ------------  ---------------
    20      1.221283  1 I  pz                17     -0.456687  1 I  pz         
   107     -0.240056  6 H  s                 91      0.235246  4 H  s          
    14     -0.163627  1 I  pz                86      0.140167  3 C  dxz        
    77      0.114880  3 C  pz                18      0.106664  1 I  px         
   112      0.082905  6 H  py                96     -0.080776  4 H  py         

 Vector   30  Occ=0.000000D+00  E= 1.369950D-01
              MO Center= -3.5D-02, -1.5D+00,  2.0D-03, r^2= 1.4D+01
   Bfn.  Coefficient  Atom+Function         Bfn.  Coefficient  Atom+Function  
  ----- ------------  ---------------      ----- ------------  ---------------
    18      1.222002  1 I  px                15     -0.457800  1 I  px         
    99      0.273340  5 H  s                 12     -0.163718  1 I  px         
    91     -0.137717  4 H  s                107     -0.129011  6 H  s          
    75      0.112077  3 C  px                20     -0.106746  1 I  pz         
   104     -0.094402  5 H  py                89      0.076749  3 C  dzz        

 Vector   31  Occ=0.000000D+00  E= 1.459901D-01
              MO Center= -8.7D-03, -1.5D+00, -5.3D-06, r^2= 1.5D+01
   Bfn.  Coefficient  Atom+Function         Bfn.  Coefficient  Atom+Function  
  ----- ------------  ---------------      ----- ------------  ---------------
    71      5.663808  3 C  s                  5     -2.768938  1 I  s          
    19     -1.989680  1 I  py                70     -1.457874  3 C  s          
    43     -0.636128  2 Cl s                  4      0.597794  1 I  s          
    84     -0.497826  3 C  dxx               89     -0.500166  3 C  dzz        
    36     -0.385006  1 I  dyy               33      0.375084  1 I  dxx        

 Vector   32  Occ=0.000000D+00  E= 1.850524D-01
              MO Center= -8.5D-03,  3.6D+00, -2.1D-06, r^2= 1.4D+01
   Bfn.  Coefficient  Atom+Function         Bfn.  Coefficient  Atom+Function  
  ----- ------------  ---------------      ----- ------------  ---------------
    71      4.242739  3 C  s                 70     -3.360187  3 C  s          
    43      3.308775  2 Cl s                  5     -2.435318  1 I  s          
    42     -1.242024  2 Cl s                 65     -0.910938  2 Cl dyy        
     4      0.859891  1 I  s                 89     -0.798331  3 C  dzz        
    84     -0.793905  3 C  dxx               62     -0.788167  2 Cl dxx        

 Vector   33  Occ=0.000000D+00  E= 2.072151D-01
              MO Center=  3.0D-02, -6.6D-01,  1.2D-05, r^2= 6.8D+00
   Bfn.  Coefficient  Atom+Function         Bfn.  Coefficient  Atom+Function  
  ----- ------------  ---------------      ----- ------------  ---------------
    35      1.318103  1 I  dxz               86     -0.397029  3 C  dxz        
    88      0.395948  3 C  dyz              111      0.351073  6 H  px         
   105     -0.334805  5 H  pz                95     -0.325890  4 H  px         
    97      0.260813  4 H  pz               113      0.237223  6 H  pz         
    29      0.202822  1 I  dxz               23     -0.185431  1 I  dxz        

 Vector   34  Occ=0.000000D+00  E= 2.072562D-01
              MO Center= -1.8D-02, -6.6D-01, -9.2D-06, r^2= 6.8D+00
   Bfn.  Coefficient  Atom+Function         Bfn.  Coefficient  Atom+Function  
  ----- ------------  ---------------      ----- ------------  ---------------
    38     -0.662921  1 I  dzz               33      0.657046  1 I  dxx        
   103     -0.428967  5 H  px                85     -0.390943  3 C  dxy        
   113     -0.338981  6 H  pz                97      0.334704  4 H  pz         
    84     -0.203184  3 C  dxx               89      0.203333  3 C  dzz        
    95      0.157474  4 H  px                15     -0.153390  1 I  px         

 Vector   35  Occ=0.000000D+00  E= 2.279477D-01
              MO Center=  1.5D-01, -2.0D-01,  1.2D-01, r^2= 1.1D+01
   Bfn.  Coefficient  Atom+Function         Bfn.  Coefficient  Atom+Function  
  ----- ------------  ---------------      ----- ------------  ---------------
   107      1.933360  6 H  s                 37     -1.517305  1 I  dyz        
    91     -1.370799  4 H  s                113     -0.790207  6 H  pz         
    88     -0.649988  3 C  dyz               97     -0.623853  4 H  pz         
    99     -0.610865  5 H  s                 34     -0.588814  1 I  dxy        
   111     -0.495955  6 H  px                77     -0.483795  3 C  pz         

 Vector   36  Occ=0.000000D+00  E= 2.279644D-01
              MO Center= -5.6D-02, -1.6D-01, -1.2D-01, r^2= 1.1D+01
   Bfn.  Coefficient  Atom+Function         Bfn.  Coefficient  Atom+Function  
  ----- ------------  ---------------      ----- ------------  ---------------
    99      1.931499  5 H  s                 34      1.500258  1 I  dxy        
    91     -1.425686  4 H  s                 71      0.974533  3 C  s          
   103      0.885104  5 H  px                85      0.654652  3 C  dxy        
    70     -0.636486  3 C  s                 37     -0.594710  1 I  dyz        
    97     -0.590827  4 H  pz                 5     -0.549691  1 I  s          

 Vector   37  Occ=0.000000D+00  E= 2.302065D-01
              MO Center= -8.5D-02,  1.7D+00,  7.6D-04, r^2= 1.7D+01
   Bfn.  Coefficient  Atom+Function         Bfn.  Coefficient  Atom+Function  
  ----- ------------  ---------------      ----- ------------  ---------------
    71      6.982465  3 C  s                 70     -5.151909  3 C  s          
     5     -4.093897  1 I  s                  4      2.618347  1 I  s          
    87     -1.776134  3 C  dyy               89     -1.237193  3 C  dzz        
    84     -1.227991  3 C  dxx               36      1.118473  1 I  dyy        
    19     -0.962955  1 I  py                54     -0.891381  2 Cl py         

 Vector   38  Occ=0.000000D+00  E= 2.534052D-01
              MO Center=  1.3D-01,  1.6D+00, -3.6D-03, r^2= 1.3D+01
   Bfn.  Coefficient  Atom+Function         Bfn.  Coefficient  Atom+Function  
  ----- ------------  ---------------      ----- ------------  ---------------
    37      1.154850  1 I  dyz               55     -0.889049  2 Cl pz         
    35      0.462129  1 I  dxz               52      0.409172  2 Cl pz         
    20      0.380015  1 I  pz                91      0.256121  4 H  s          
   107     -0.250483  6 H  s                 86      0.206814  3 C  dxz        
    31      0.182886  1 I  dyz               97     -0.157849  4 H  pz         

 Vector   39  Occ=0.000000D+00  E= 2.534336D-01
              MO Center= -1.3D-01,  1.7D+00,  3.6D-03, r^2= 1.3D+01
   Bfn.  Coefficient  Atom+Function         Bfn.  Coefficient  Atom+Function  
  ----- ------------  ---------------      ----- ------------  ---------------
    34      1.159407  1 I  dxy               53     -0.897369  2 Cl px         
    50      0.411235  2 Cl px                18      0.378553  1 I  px         
    99      0.357329  5 H  s                 70     -0.319551  3 C  s          
    71      0.301855  3 C  s                 38      0.251356  1 I  dzz        
   104     -0.218734  5 H  py               103     -0.201031  5 H  px         

 Vector   40  Occ=0.000000D+00  E= 2.667516D-01
              MO Center= -2.3D-03,  1.4D+00,  4.4D-05, r^2= 1.6D+01
   Bfn.  Coefficient  Atom+Function         Bfn.  Coefficient  Atom+Function  
  ----- ------------  ---------------      ----- ------------  ---------------
    71    -11.824505  3 C  s                  5     11.008199  1 I  s          
    70      7.543943  3 C  s                  4     -3.424715  1 I  s          
    33     -2.761994  1 I  dxx               38     -2.754213  1 I  dzz        
    43      2.634303  2 Cl s                 36     -2.405689  1 I  dyy        
    89      1.767315  3 C  dzz               54     -1.755538  2 Cl py         

 Vector   41  Occ=0.000000D+00  E= 2.862711D-01
              MO Center=  2.1D-01,  1.7D+00,  8.2D-06, r^2= 1.0D+01
   Bfn.  Coefficient  Atom+Function         Bfn.  Coefficient  Atom+Function  
  ----- ------------  ---------------      ----- ------------  ---------------
   107      0.936139  6 H  s                 91     -0.904270  4 H  s          
    35      0.844467  1 I  dxz               97     -0.774419  4 H  pz         
   113     -0.742810  6 H  pz                55      0.697120  2 Cl pz         
    88     -0.552344  3 C  dyz              111     -0.505347  6 H  px         
    86     -0.440459  3 C  dxz               95      0.384900  4 H  px         

 Vector   42  Occ=0.000000D+00  E= 2.869027D-01
              MO Center= -2.1D-01,  1.7D+00, -2.4D-05, r^2= 1.0D+01
   Bfn.  Coefficient  Atom+Function         Bfn.  Coefficient  Atom+Function  
  ----- ------------  ---------------      ----- ------------  ---------------
    99      1.083695  5 H  s                103      1.028907  5 H  px         
    53     -0.688857  2 Cl px                85      0.573218  3 C  dxy        
    91     -0.535917  4 H  s                 38     -0.487144  1 I  dzz        
    97     -0.485080  4 H  pz               107     -0.471847  6 H  s          
   113      0.399769  6 H  pz                33      0.360651  1 I  dxx        

 Vector   43  Occ=0.000000D+00  E= 3.009915D-01
              MO Center= -1.6D-02, -1.2D-02, -1.0D-05, r^2= 1.8D+01
   Bfn.  Coefficient  Atom+Function         Bfn.  Coefficient  Atom+Function  
  ----- ------------  ---------------      ----- ------------  ---------------
     5      9.493487  1 I  s                 71      6.542521  3 C  s          
     4     -4.789730  1 I  s                 70     -3.524896  3 C  s          
    36     -3.463253  1 I  dyy               33     -3.330530  1 I  dxx        
    38     -3.314428  1 I  dzz               43     -2.745517  2 Cl s          
    54      1.509822  2 Cl py                16     -0.831485  1 I  py         

 Vector   44  Occ=0.000000D+00  E= 3.176533D-01
              MO Center= -4.3D-03, -2.0D+00, -3.9D-05, r^2= 1.1D+01
   Bfn.  Coefficient  Atom+Function         Bfn.  Coefficient  Atom+Function  
  ----- ------------  ---------------      ----- ------------  ---------------
    70      8.738125  3 C  s                 36     -2.667089  1 I  dyy        
    91     -2.514135  4 H  s                107     -2.515566  6 H  s          
    99     -2.498399  5 H  s                 16     -2.224713  1 I  py         
     5     -1.807079  1 I  s                 19     -1.645273  1 I  py         
    87      1.610589  3 C  dyy               43      1.389723  2 Cl s          

 Vector   45  Occ=0.000000D+00  E= 3.355115D-01
              MO Center=  4.8D-01,  1.8D+00,  5.4D-04, r^2= 8.0D+00
   Bfn.  Coefficient  Atom+Function         Bfn.  Coefficient  Atom+Function  
  ----- ------------  ---------------      ----- ------------  ---------------
    95      1.044974  4 H  px               111      1.018361  6 H  px         
    85     -0.770100  3 C  dxy               34     -0.585046  1 I  dxy        
   104     -0.582277  5 H  py               113     -0.495694  6 H  pz         
    99      0.453218  5 H  s                 75     -0.446295  3 C  px         
    53     -0.432623  2 Cl px                89      0.389193  3 C  dzz        

 Vector   46  Occ=0.000000D+00  E= 3.364090D-01
              MO Center= -4.6D-01,  1.8D+00, -4.4D-04, r^2= 8.0D+00
   Bfn.  Coefficient  Atom+Function         Bfn.  Coefficient  Atom+Function  
  ----- ------------  ---------------      ----- ------------  ---------------
   105      1.248391  5 H  pz                88     -0.787615  3 C  dyz        
    86      0.718885  3 C  dxz               37     -0.592442  1 I  dyz        
   113      0.560572  6 H  pz                35      0.545810  1 I  dxz        
    97      0.531809  4 H  pz               112      0.520773  6 H  py         
    96     -0.499643  4 H  py                95      0.479861  4 H  px         

 Vector   47  Occ=0.000000D+00  E= 4.111721D-01
              MO Center=  2.7D-03,  1.1D+00, -3.7D-05, r^2= 9.7D+00
   Bfn.  Coefficient  Atom+Function         Bfn.  Coefficient  Atom+Function  
  ----- ------------  ---------------      ----- ------------  ---------------
    70     26.759829  3 C  s                 71    -17.744397  3 C  s          
    91     -5.566688  4 H  s                 99     -5.578592  5 H  s          
   107     -5.564643  6 H  s                 89      4.407790  3 C  dzz        
    84      4.362911  3 C  dxx               87      3.872018  3 C  dyy        
     5      2.848198  1 I  s                103     -2.613776  5 H  px         

 Vector   48  Occ=0.000000D+00  E= 4.226573D-01
              MO Center=  1.5D-01,  3.0D+00,  1.8D-03, r^2= 6.2D+00
   Bfn.  Coefficient  Atom+Function         Bfn.  Coefficient  Atom+Function  
  ----- ------------  ---------------      ----- ------------  ---------------
    64      1.292951  2 Cl dxz               77      0.841357  3 C  pz         
    86     -0.840385  3 C  dxz              107     -0.808314  6 H  s          
   112      0.751486  6 H  py                91      0.731120  4 H  s          
    96     -0.706807  4 H  py                88     -0.678505  3 C  dyz        
    35      0.450604  1 I  dxz              111      0.291975  6 H  px         

 Vector   49  Occ=0.000000D+00  E= 4.235495D-01
              MO Center= -1.3D-01,  3.0D+00, -1.6D-03, r^2= 6.1D+00
   Bfn.  Coefficient  Atom+Function         Bfn.  Coefficient  Atom+Function  
  ----- ------------  ---------------      ----- ------------  ---------------
    70      0.920833  3 C  s                 75      0.791032  3 C  px         
    85     -0.709188  3 C  dxy              104     -0.710110  5 H  py         
    67      0.693226  2 Cl dzz               91     -0.624871  4 H  s          
    62     -0.614683  2 Cl dxx               84      0.612597  3 C  dxx        
   107     -0.581837  6 H  s                 99      0.555947  5 H  s          

 Vector   50  Occ=0.000000D+00  E= 4.449695D-01
              MO Center=  1.5D-01,  7.0D-01, -1.1D-02, r^2= 9.5D+00
   Bfn.  Coefficient  Atom+Function         Bfn.  Coefficient  Atom+Function  
  ----- ------------  ---------------      ----- ------------  ---------------
    99      3.019316  5 H  s                 71      2.700730  3 C  s          
    70     -1.861919  3 C  s                 34      1.756345  1 I  dxy        
    91     -1.372582  4 H  s                107     -1.370896  6 H  s          
    75      1.202233  3 C  px                84     -1.193426  3 C  dxx        
    85      1.079573  3 C  dxy               43     -0.850708  2 Cl s          

 Vector   51  Occ=0.000000D+00  E= 4.456125D-01
              MO Center=  6.0D-03,  6.3D-01,  1.1D-02, r^2= 9.5D+00
   Bfn.  Coefficient  Atom+Function         Bfn.  Coefficient  Atom+Function  
  ----- ------------  ---------------      ----- ------------  ---------------
    91      2.599249  4 H  s                107     -2.565626  6 H  s          
    86      1.836921  3 C  dxz               37      1.820295  1 I  dyz        
    77      1.199148  3 C  pz                88      1.133475  3 C  dyz        
   112      0.777911  6 H  py                96     -0.759213  4 H  py         
    20      0.592156  1 I  pz                66     -0.482244  2 Cl dyz        

 Vector   52  Occ=0.000000D+00  E= 4.487647D-01
              MO Center= -1.7D-01,  2.0D+00,  3.6D-05, r^2= 7.8D+00
   Bfn.  Coefficient  Atom+Function         Bfn.  Coefficient  Atom+Function  
  ----- ------------  ---------------      ----- ------------  ---------------
    71      9.670410  3 C  s                 70     -6.249080  3 C  s          
    43     -3.207450  2 Cl s                  5     -2.717999  1 I  s          
    87     -2.236383  3 C  dyy               76     -1.315992  3 C  py         
    89     -1.311972  3 C  dzz               65      1.094144  2 Cl dyy        
   104      0.988978  5 H  py                84     -0.912464  3 C  dxx        

 Vector   53  Occ=0.000000D+00  E= 4.751340D-01
              MO Center=  3.8D-02,  1.2D+00, -7.3D-05, r^2= 6.0D+00
   Bfn.  Coefficient  Atom+Function         Bfn.  Coefficient  Atom+Function  
  ----- ------------  ---------------      ----- ------------  ---------------
   105     -1.449378  5 H  pz                95      1.376610  4 H  px         
   111     -1.280866  6 H  px               113      0.809943  6 H  pz         
    97      0.622588  4 H  pz                86      0.103259  3 C  dxz        
   103     -0.095926  5 H  px                77     -0.052695  3 C  pz         
    88      0.035926  3 C  dyz               37      0.025767  1 I  dyz        

 Vector   54  Occ=0.000000D+00  E= 4.993629D-01
              MO Center=  1.1D-01,  2.9D+00,  3.2D-03, r^2= 9.5D+00
   Bfn.  Coefficient  Atom+Function         Bfn.  Coefficient  Atom+Function  
  ----- ------------  ---------------      ----- ------------  ---------------
    71      5.945325  3 C  s                 70      5.234670  3 C  s          
     5     -5.184743  1 I  s                 43      3.497320  2 Cl s          
   107     -3.160124  6 H  s                 91     -3.062298  4 H  s          
    99     -2.124509  5 H  s                 67     -1.770233  2 Cl dzz        
    62     -1.686180  2 Cl dxx                4      1.539154  1 I  s          

 Vector   55  Occ=0.000000D+00  E= 5.034827D-01
              MO Center=  4.4D-01,  1.7D+00, -1.8D-02, r^2= 7.1D+00
   Bfn.  Coefficient  Atom+Function         Bfn.  Coefficient  Atom+Function  
  ----- ------------  ---------------      ----- ------------  ---------------
   107     -4.567460  6 H  s                 91      4.494757  4 H  s          
    77      3.351273  3 C  pz                97      2.154325  4 H  pz         
   113      1.990418  6 H  pz               111      1.804959  6 H  px         
    86     -1.603803  3 C  dxz               95     -1.524812  4 H  px         
   105     -0.919189  5 H  pz                66     -0.791389  2 Cl dyz        

 Vector   56  Occ=0.000000D+00  E= 5.039436D-01
              MO Center= -4.7D-01,  1.8D+00,  1.5D-02, r^2= 7.3D+00
   Bfn.  Coefficient  Atom+Function         Bfn.  Coefficient  Atom+Function  
  ----- ------------  ---------------      ----- ------------  ---------------
    99      5.001082  5 H  s                 75      3.150254  3 C  px         
   103      2.935561  5 H  px                91     -2.256477  4 H  s          
   107     -2.058524  6 H  s                 97     -1.607515  4 H  pz         
   113      1.510580  6 H  pz                84      0.875211  3 C  dxx        
    63     -0.863500  2 Cl dxy               89     -0.792206  3 C  dzz        

 Vector   57  Occ=0.000000D+00  E= 5.176067D-01
              MO Center=  1.8D-01,  9.1D-01,  2.8D-03, r^2= 9.4D+00
   Bfn.  Coefficient  Atom+Function         Bfn.  Coefficient  Atom+Function  
  ----- ------------  ---------------      ----- ------------  ---------------
   107     -3.649718  6 H  s                 91      3.473407  4 H  s          
    88      3.447261  3 C  dyz               77      1.719683  3 C  pz         
    37      1.621659  1 I  dyz               97      1.296113  4 H  pz         
   113      1.241670  6 H  pz                66      1.156674  2 Cl dyz        
   111      1.061523  6 H  px                17      0.977771  1 I  pz         

 Vector   58  Occ=0.000000D+00  E= 5.178490D-01
              MO Center= -2.1D-01,  8.4D-01, -2.9D-03, r^2= 9.1D+00
   Bfn.  Coefficient  Atom+Function         Bfn.  Coefficient  Atom+Function  
  ----- ------------  ---------------      ----- ------------  ---------------
    99      4.502462  5 H  s                 85      3.488544  3 C  dxy        
    91     -2.486638  4 H  s                107     -2.178008  6 H  s          
   103      2.059218  5 H  px                75      1.973631  3 C  px         
    34      1.603837  1 I  dxy               97     -1.160683  4 H  pz         
    63      1.087617  2 Cl dxy              113      1.023963  6 H  pz         

 Vector   59  Occ=0.000000D+00  E= 5.278146D-01
              MO Center= -1.3D-02,  1.9D+00,  2.1D-04, r^2= 9.7D+00
   Bfn.  Coefficient  Atom+Function         Bfn.  Coefficient  Atom+Function  
  ----- ------------  ---------------      ----- ------------  ---------------
    71      9.034034  3 C  s                 70      4.390623  3 C  s          
     5     -3.910205  1 I  s                 43     -3.011896  2 Cl s          
    99     -2.985387  5 H  s                 91     -2.875269  4 H  s          
   107     -2.867359  6 H  s                 84     -1.700939  3 C  dxx        
    76      1.668187  3 C  py               103     -1.630849  5 H  px         

 Vector   60  Occ=0.000000D+00  E= 5.632310D-01
              MO Center= -1.1D-02,  3.6D+00, -2.4D-04, r^2= 8.8D+00
   Bfn.  Coefficient  Atom+Function         Bfn.  Coefficient  Atom+Function  
  ----- ------------  ---------------      ----- ------------  ---------------
    71      9.591873  3 C  s                 70      4.789814  3 C  s          
    43     -4.016883  2 Cl s                  5     -3.571838  1 I  s          
    91     -2.972045  4 H  s                107     -2.942856  6 H  s          
    99     -2.658722  5 H  s                 54      2.509762  2 Cl py         
     4     -1.531462  1 I  s                 16     -1.501554  1 I  py         

 Vector   61  Occ=0.000000D+00  E= 5.645043D-01
              MO Center=  5.3D-02,  1.2D+00,  7.7D-04, r^2= 8.7D+00
   Bfn.  Coefficient  Atom+Function         Bfn.  Coefficient  Atom+Function  
  ----- ------------  ---------------      ----- ------------  ---------------
   107     -7.504220  6 H  s                 91      7.196806  4 H  s          
    86      4.451325  3 C  dxz               88      2.696780  3 C  dyz        
    77      2.375186  3 C  pz                97      2.179143  4 H  pz         
   113      2.165856  6 H  pz               105      1.840030  5 H  pz         
   112     -1.097432  6 H  py                96      1.058636  4 H  py         

 Vector   62  Occ=0.000000D+00  E= 5.650882D-01
              MO Center=  6.7D-02,  1.1D+00, -4.4D-04, r^2= 8.2D+00
   Bfn.  Coefficient  Atom+Function         Bfn.  Coefficient  Atom+Function  
  ----- ------------  ---------------      ----- ------------  ---------------
    99      9.840535  5 H  s                 91     -5.064259  4 H  s          
   107     -4.468759  6 H  s                 84     -2.833602  3 C  dxx        
    89      2.824023  3 C  dzz               75      2.745585  3 C  px         
   103      2.591991  5 H  px                95      2.461274  4 H  px         
   111      2.459324  6 H  px                85      2.039420  3 C  dxy        

 Vector   63  Occ=0.000000D+00  E= 5.709749D-01
              MO Center=  4.9D-02,  6.9D-01,  4.9D-04, r^2= 9.8D+00
   Bfn.  Coefficient  Atom+Function         Bfn.  Coefficient  Atom+Function  
  ----- ------------  ---------------      ----- ------------  ---------------
    99      5.664552  5 H  s                 85     -3.636488  3 C  dxy        
   104     -2.956493  5 H  py                91     -2.822998  4 H  s          
    89      2.747238  3 C  dzz               84     -2.681222  3 C  dxx        
   107     -2.462662  6 H  s                 95      2.399116  4 H  px         
   111      2.353281  6 H  px                75      1.771124  3 C  px         

 Vector   64  Occ=0.000000D+00  E= 5.712195D-01
              MO Center= -1.5D-01,  6.0D-01, -4.1D-04, r^2= 9.1D+00
   Bfn.  Coefficient  Atom+Function         Bfn.  Coefficient  Atom+Function  
  ----- ------------  ---------------      ----- ------------  ---------------
    86      6.464365  3 C  dxz              107     -6.422329  6 H  s          
    91      6.188016  4 H  s                 88     -3.240229  3 C  dyz        
   105      3.224827  5 H  pz               112      2.384625  6 H  py         
    96     -2.295747  4 H  py                77      2.203802  3 C  pz         
   113      2.123467  6 H  pz                97      2.091619  4 H  pz         

 Vector   65  Occ=0.000000D+00  E= 6.324850D-01
              MO Center= -3.9D-04,  4.6D-01, -5.8D-06, r^2= 8.8D+00
   Bfn.  Coefficient  Atom+Function         Bfn.  Coefficient  Atom+Function  
  ----- ------------  ---------------      ----- ------------  ---------------
    70     16.246488  3 C  s                 87      6.644883  3 C  dyy        
     4     -6.201433  1 I  s                 91     -4.742633  4 H  s          
   107     -4.763523  6 H  s                 16     -4.635588  1 I  py         
    99     -4.492259  5 H  s                 71     -4.110546  3 C  s          
    89      2.726380  3 C  dzz               84      2.638429  3 C  dxx        

 Vector   66  Occ=0.000000D+00  E= 6.535264D-01
              MO Center=  7.7D-03,  8.7D-01, -1.3D-05, r^2= 7.1D+00
   Bfn.  Coefficient  Atom+Function         Bfn.  Coefficient  Atom+Function  
  ----- ------------  ---------------      ----- ------------  ---------------
    70     71.396539  3 C  s                 91    -24.047953  4 H  s          
    99    -24.085286  5 H  s                107    -24.045001  6 H  s          
    71    -22.393332  3 C  s                 84     12.437977  3 C  dxx        
    89     12.444422  3 C  dzz              103     -6.197767  5 H  px         
    87      6.087661  3 C  dyy               97     -5.577053  4 H  pz         

 Vector   67  Occ=0.000000D+00  E= 7.040988D-01
              MO Center=  1.3D-01, -2.1D-01, -6.1D-04, r^2= 7.2D+00
   Bfn.  Coefficient  Atom+Function         Bfn.  Coefficient  Atom+Function  
  ----- ------------  ---------------      ----- ------------  ---------------
   107     -3.498692  6 H  s                 91      3.396071  4 H  s          
    86      2.910503  3 C  dxz              112      2.153728  6 H  py         
    96     -2.080433  4 H  py                88     -1.664957  3 C  dyz        
    17      1.415011  1 I  pz               105      1.259022  5 H  pz         
    14     -1.217746  1 I  pz                77      1.120236  3 C  pz         

 Vector   68  Occ=0.000000D+00  E= 7.059681D-01
              MO Center= -1.2D-01, -1.7D-01,  5.9D-04, r^2= 7.3D+00
   Bfn.  Coefficient  Atom+Function         Bfn.  Coefficient  Atom+Function  
  ----- ------------  ---------------      ----- ------------  ---------------
    99      4.128576  5 H  s                104     -2.546042  5 H  py         
    91     -1.950550  4 H  s                107     -1.719572  6 H  s          
    85     -1.682039  3 C  dxy               84     -1.520321  3 C  dxx        
    15      1.402805  1 I  px                89      1.382256  3 C  dzz        
    96      1.281230  4 H  py                12     -1.210175  1 I  px         

 Vector   69  Occ=0.000000D+00  E= 7.379641D-01
              MO Center=  1.1D-03, -5.0D-01,  2.0D-05, r^2= 9.0D+00
   Bfn.  Coefficient  Atom+Function         Bfn.  Coefficient  Atom+Function  
  ----- ------------  ---------------      ----- ------------  ---------------
     5     11.409074  1 I  s                 70      5.005028  3 C  s          
    71     -4.937088  3 C  s                 33     -4.135899  1 I  dxx        
    38     -4.140139  1 I  dzz                3     -3.738062  1 I  s          
    36     -3.417781  1 I  dyy               87      2.056570  3 C  dyy        
    30     -1.208203  1 I  dyy               84      1.158124  3 C  dxx        

 Vector   70  Occ=0.000000D+00  E= 7.582505D-01
              MO Center=  6.6D-02, -6.9D-01, -1.7D-04, r^2= 5.1D+00
   Bfn.  Coefficient  Atom+Function         Bfn.  Coefficient  Atom+Function  
  ----- ------------  ---------------      ----- ------------  ---------------
    99      5.261524  5 H  s                 91     -2.809897  4 H  s          
   107     -2.498172  6 H  s                 89      2.323590  3 C  dzz        
    84     -2.299460  3 C  dxx               95      1.946140  4 H  px         
   111      1.905271  6 H  px               104     -1.482136  5 H  py         
    75      0.973845  3 C  px                85     -0.925170  3 C  dxy        

 Vector   71  Occ=0.000000D+00  E= 7.591157D-01
              MO Center= -6.0D-02, -6.8D-01,  2.0D-04, r^2= 5.2D+00
   Bfn.  Coefficient  Atom+Function         Bfn.  Coefficient  Atom+Function  
  ----- ------------  ---------------      ----- ------------  ---------------
   107     -4.718325  6 H  s                 86      4.678748  3 C  dxz        
    91      4.533774  4 H  s                105      2.304343  5 H  pz         
    29     -1.804146  1 I  dxz              112      1.313679  6 H  py         
    96     -1.266350  4 H  py               113      1.272295  6 H  pz         
    97      1.230291  4 H  pz                88     -1.013600  3 C  dyz        

 Vector   72  Occ=0.000000D+00  E= 8.031862D-01
              MO Center= -2.3D-03, -1.1D+00, -1.0D-05, r^2= 7.9D+00
   Bfn.  Coefficient  Atom+Function         Bfn.  Coefficient  Atom+Function  
  ----- ------------  ---------------      ----- ------------  ---------------
    70     14.256295  3 C  s                 71    -10.454297  3 C  s          
    91     -4.254489  4 H  s                107     -4.260944  6 H  s          
    99     -4.184209  5 H  s                 36      3.136140  1 I  dyy        
    16      2.911777  1 I  py                89      2.785043  3 C  dzz        
    84      2.744528  3 C  dxx               87      2.343491  3 C  dyy        

 Vector   73  Occ=0.000000D+00  E= 8.421108D-01
              MO Center=  2.5D-01, -1.3D-03,  9.2D-04, r^2= 5.3D+00
   Bfn.  Coefficient  Atom+Function         Bfn.  Coefficient  Atom+Function  
  ----- ------------  ---------------      ----- ------------  ---------------
    85      5.242970  3 C  dxy               99      2.201923  5 H  s          
    28      1.890015  1 I  dxy              104      1.824025  5 H  py         
    75      1.813323  3 C  px                91     -1.258331  4 H  s          
   107     -1.116848  6 H  s                 15      1.109553  1 I  px         
    96     -0.962115  4 H  py               103      0.937523  5 H  px         

 Vector   74  Occ=0.000000D+00  E= 8.427304D-01
              MO Center= -2.3D-01,  6.1D-04, -9.2D-04, r^2= 5.4D+00
   Bfn.  Coefficient  Atom+Function         Bfn.  Coefficient  Atom+Function  
  ----- ------------  ---------------      ----- ------------  ---------------
    88      5.238655  3 C  dyz              107     -2.071477  6 H  s          
    91      1.975607  4 H  s                 31      1.892508  1 I  dyz        
    77      1.825394  3 C  pz               112     -1.596558  6 H  py         
    96      1.532200  4 H  py                17      1.117339  1 I  pz         
   105     -0.810622  5 H  pz               111      0.782020  6 H  px         

 Vector   75  Occ=0.000000D+00  E= 1.001134D+00
              MO Center=  6.5D-03, -3.7D-01, -1.2D-05, r^2= 5.5D+00
   Bfn.  Coefficient  Atom+Function         Bfn.  Coefficient  Atom+Function  
  ----- ------------  ---------------      ----- ------------  ---------------
    70     13.866123  3 C  s                  4     -7.236418  1 I  s          
    16     -5.280700  1 I  py                87      4.604338  3 C  dyy        
    99     -3.679414  5 H  s                 71     -3.621286  3 C  s          
    91     -3.627792  4 H  s                107     -3.624214  6 H  s          
    89      2.350683  3 C  dzz               84      2.305831  3 C  dxx        

 Vector   76  Occ=0.000000D+00  E= 1.027930D+00
              MO Center=  4.5D-01,  1.3D+00, -1.6D-03, r^2= 4.7D+00
   Bfn.  Coefficient  Atom+Function         Bfn.  Coefficient  Atom+Function  
  ----- ------------  ---------------      ----- ------------  ---------------
   107     -5.451288  6 H  s                 91      5.237620  4 H  s          
    77      2.770825  3 C  pz                86     -2.052245  3 C  dxz        
    97      2.018899  4 H  pz               113      1.917256  6 H  pz         
   111      1.591435  6 H  px                88      1.506238  3 C  dyz        
    95     -1.300189  4 H  px               106      0.883926  6 H  s          

 Vector   77  Occ=0.000000D+00  E= 1.028185D+00
              MO Center= -4.3D-01,  1.3D+00,  1.6D-03, r^2= 4.7D+00
   Bfn.  Coefficient  Atom+Function         Bfn.  Coefficient  Atom+Function  
  ----- ------------  ---------------      ----- ------------  ---------------
    99      6.137269  5 H  s                 91     -3.362162  4 H  s          
   107     -3.016991  6 H  s                 75      2.786165  3 C  px         
   103      2.782748  5 H  px                97     -1.544457  4 H  pz         
    85      1.506369  3 C  dxy              113      1.373732  6 H  pz         
    84      1.043445  3 C  dxx               98     -1.003822  5 H  s          

 Vector   78  Occ=0.000000D+00  E= 1.119319D+00
              MO Center= -5.3D-02,  5.3D-01, -1.8D-03, r^2= 4.0D+00
   Bfn.  Coefficient  Atom+Function         Bfn.  Coefficient  Atom+Function  
  ----- ------------  ---------------      ----- ------------  ---------------
   107    -10.431488  6 H  s                 91     10.094381  4 H  s          
    77      7.234470  3 C  pz                86      5.106209  3 C  dxz        
    97      2.311395  4 H  pz               113      2.252519  6 H  pz         
   112      1.637274  6 H  py                96     -1.582452  4 H  py         
   105      1.240312  5 H  pz                31     -1.011429  1 I  dyz        

 Vector   79  Occ=0.000000D+00  E= 1.119678D+00
              MO Center=  6.1D-02,  5.2D-01,  1.9D-03, r^2= 4.0D+00
   Bfn.  Coefficient  Atom+Function         Bfn.  Coefficient  Atom+Function  
  ----- ------------  ---------------      ----- ------------  ---------------
    99     12.333171  5 H  s                 75      7.226584  3 C  px         
    91     -5.804640  4 H  s                107     -5.047005  6 H  s          
   103      2.730681  5 H  px                84     -2.653574  3 C  dxx        
    89      2.467356  3 C  dzz              104     -1.959069  5 H  py         
   111      1.550250  6 H  px                95      1.527753  4 H  px         

 Vector   80  Occ=0.000000D+00  E= 1.128223D+00
              MO Center=  2.7D-02,  1.4D+00, -8.7D-05, r^2= 4.9D+00
   Bfn.  Coefficient  Atom+Function         Bfn.  Coefficient  Atom+Function  
  ----- ------------  ---------------      ----- ------------  ---------------
    70     38.460652  3 C  s                 91    -16.094355  4 H  s          
   107    -16.134248  6 H  s                 99    -15.575789  5 H  s          
[...]
          Maximum number of iterations:  50
          AO basis - number of functions:   113
                     number of shells:    44
          Convergence on energy requested:  1.00D-06
          Convergence on density requested:  1.00D-05
          Convergence on gradient requested:  5.00D-04

              XC Information
              --------------
                         B3LYP Method XC Potential
                     Hartree-Fock (Exact) Exchange  0.200          
                        Slater Exchange Functional  0.800 local    
                    Becke 1988 Exchange Functional  0.720 non-local
              Lee-Yang-Parr Correlation Functional  0.810          
                  VWN I RPA Correlation Functional  0.190 local    

             Grid Information
             ----------------
          Grid used for XC integration:  medium    
          Radial quadrature: Mura-Knowles        
          Angular quadrature: Lebedev. 
          Tag              B.-S. Rad. Rad. Pts. Rad. Cut. Ang. Pts.
          ---              ---------- --------- --------- ---------
          I                   1.40      123          15.0       590
          Cl                  1.00       88          17.0       590
          C                   0.70       49          12.0       434
          H                   0.35       45          11.0       434
          Grid pruning is: on 
          Number of quadrature shells:   395
          Spatial weights used:  Erf1

          Convergence Information
          -----------------------
          Convergence aids based upon iterative change in 
          total energy or number of iterations. 
          Levelshifting, if invoked, occurs when the 
          HOMO/LUMO gap drops below (HL_TOL):  1.00D-02
          DIIS, if invoked, will attempt to extrapolate 
          using up to (NFOCK): 10 stored Fock matrices.

                    Damping( 0%)  Levelshifting(0.5)       DIIS
                  --------------- ------------------- ---------------
          dE  on:    start            ASAP                start   
          dE off:    2 iters         50 iters            50 iters 


      Screening Tolerance Information
      -------------------------------
          Density screening/tol_rho:  1.00D-10
          AO Gaussian exp screening on grid/accAOfunc:  14
          CD Gaussian exp screening on grid/accCDfunc:  20
          XC Gaussian exp screening on grid/accXCfunc:  20
          Schwarz screening/accCoul:  1.00D-08



                            NWChem DFT Gradient Module
                            --------------------------


                                       Title



  charge          =  -1.00
  wavefunction    = closed shell



                         DFT ENERGY GRADIENTS

    atom               coordinates                        gradient
                 x          y          z           x          y          z
   1 I       0.016847  -2.588285  -0.000184    0.000004   0.000020   0.000001
   2 Cl     -0.003246   7.356073  -0.000303   -0.000017  -0.000705  -0.000000
   3 C       0.020878   1.686947   0.000081   -0.000003   0.000685   0.000003
   4 H       0.892200   2.245412  -1.778991    0.000006  -0.000012  -0.000015
   5 H      -1.954147   2.249898   0.135496    0.000006   0.000041  -0.000001
   6 H       1.126769   2.244626   1.643901    0.000006  -0.000029   0.000012

                 ----------------------------------------
                 |  Time  |  1-e(secs)   |  2-e(secs)   |
                 ----------------------------------------
                 |  CPU   |       0.02   |       4.47   |
                 ----------------------------------------
                 |  WALL  |       0.02   |       4.47   |
                 ----------------------------------------

  Step       Energy      Delta E   Gmax     Grms     Xrms     Xmax   Walltime
  ---- ---------------- -------- -------- -------- -------- -------- --------
@    5    -797.85984598  8.2D-08  0.00004  0.00002  0.00060  0.00138     77.3
                                     ok       ok       ok       ok  

  Internal coordinate gradient before constraints


                                Z-matrix (autoz)
                                -------- 

 Units are Angstrom for bonds and degrees for angles

  Constants are marked with an asterisk (*).

      Type          Name      I     J     K     L     M      Value     Gradient
      ----------- --------  ----- ----- ----- ----- ----- ---------- ----------
    1 Stretch                  1     3                       2.26236   -0.00002
    2*Stretch      cccc        2     3                       3.00000   -0.00070
    3 Stretch                  3     4                       1.08915    0.00001
    4 Stretch                  3     5                       1.08913    0.00001
    5 Stretch                  3     6                       1.08915    0.00001
    6 Bend                     1     3     4               105.76441   -0.00000
    7 Bend                     1     3     5               105.82036    0.00000
    8 Bend                     1     3     6               105.75425   -0.00001
    9 Bend                     2     3     4                74.36004    0.00002
   10 Bend                     2     3     5                73.88301   -0.00004
   11 Bend                     2     3     6                74.41825    0.00003
   12 Bend                     4     3     5               112.88603   -0.00000
   13 Bend                     4     3     6               112.91540    0.00000
   14 Bend                     5     3     6               112.88923    0.00000

  Internal coordinate gradient after constraints


                                Z-matrix (autoz)
                                -------- 

 Units are Angstrom for bonds and degrees for angles

  Constants are marked with an asterisk (*).

      Type          Name      I     J     K     L     M      Value     Gradient
      ----------- --------  ----- ----- ----- ----- ----- ---------- ----------
    1 Stretch                  1     3                       2.26236   -0.00002
    2*Stretch      cccc        2     3                       3.00000    0.00000
    3 Stretch                  3     4                       1.08915    0.00001
    4 Stretch                  3     5                       1.08913    0.00001
    5 Stretch                  3     6                       1.08915    0.00001
    6 Bend                     1     3     4               105.76441   -0.00000
    7 Bend                     1     3     5               105.82036    0.00000
    8 Bend                     1     3     6               105.75425   -0.00001
    9 Bend                     2     3     4                74.36004    0.00002
   10 Bend                     2     3     5                73.88301   -0.00004
   11 Bend                     2     3     6                74.41825    0.00003
   12 Bend                     4     3     5               112.88603   -0.00000
   13 Bend                     4     3     6               112.91540    0.00000
   14 Bend                     5     3     6               112.88923    0.00000


      ----------------------
      Optimization converged
      ----------------------


  Step       Energy      Delta E   Gmax     Grms     Xrms     Xmax   Walltime
  ---- ---------------- -------- -------- -------- -------- -------- --------
@    5    -797.85984598  8.2D-08  0.00004  0.00002  0.00060  0.00138     77.3
                                     ok       ok       ok       ok  

  Internal coordinate gradient before constraints


                                Z-matrix (autoz)
                                -------- 

 Units are Angstrom for bonds and degrees for angles

  Constants are marked with an asterisk (*).

      Type          Name      I     J     K     L     M      Value     Gradient
      ----------- --------  ----- ----- ----- ----- ----- ---------- ----------
    1 Stretch                  1     3                       2.26236   -0.00002
    2*Stretch      cccc        2     3                       3.00000   -0.00070
    3 Stretch                  3     4                       1.08915    0.00001
    4 Stretch                  3     5                       1.08913    0.00001
    5 Stretch                  3     6                       1.08915    0.00001
    6 Bend                     1     3     4               105.76441   -0.00000
    7 Bend                     1     3     5               105.82036    0.00000
    8 Bend                     1     3     6               105.75425   -0.00001
    9 Bend                     2     3     4                74.36004    0.00002
   10 Bend                     2     3     5                73.88301   -0.00004
   11 Bend                     2     3     6                74.41825    0.00003
   12 Bend                     4     3     5               112.88603   -0.00000
   13 Bend                     4     3     6               112.91540    0.00000
   14 Bend                     5     3     6               112.88923    0.00000

  Internal coordinate gradient after constraints


                                Z-matrix (autoz)
                                -------- 

 Units are Angstrom for bonds and degrees for angles

  Constants are marked with an asterisk (*).

      Type          Name      I     J     K     L     M      Value     Gradient
      ----------- --------  ----- ----- ----- ----- ----- ---------- ----------
    1 Stretch                  1     3                       2.26236   -0.00002
    2*Stretch      cccc        2     3                       3.00000    0.00000
    3 Stretch                  3     4                       1.08915    0.00001
    4 Stretch                  3     5                       1.08913    0.00001
    5 Stretch                  3     6                       1.08915    0.00001
    6 Bend                     1     3     4               105.76441   -0.00000
    7 Bend                     1     3     5               105.82036    0.00000
    8 Bend                     1     3     6               105.75425   -0.00001
    9 Bend                     2     3     4                74.36004    0.00002
   10 Bend                     2     3     5                73.88301   -0.00004
   11 Bend                     2     3     6                74.41825    0.00003
   12 Bend                     4     3     5               112.88603   -0.00000
   13 Bend                     4     3     6               112.91540    0.00000
   14 Bend                     5     3     6               112.88923    0.00000



                         Geometry "geometry" -> "geometry"
                         ---------------------------------

 Output coordinates in angstroms (scale by  1.889725989 to convert to a.u.)

  No.       Tag          Charge          X              Y              Z
 ---- ---------------- ---------- -------------- -------------- --------------
    1 I                   53.0000     0.00891508    -1.36966173    -0.00009725
    2 Cl                  17.0000    -0.00171797     3.89266663    -0.00016041
    3 C                    6.0000     0.01104817     0.89269380     0.00004266
    4 H                    1.0000     0.47213198     1.18822088    -0.94140132
    5 H                    1.0000    -1.03409036     1.19059461     0.07170131
    6 H                    1.0000     0.59626071     1.18780486     0.86991495

      Atomic Mass 
      ----------- 

      I                126.900400
      Cl                34.968850
      C                 12.000000
      H                  1.007825


 Effective nuclear repulsion energy (a.u.)     232.3359740885

            Nuclear Dipole moment (a.u.) 
            ----------------------------
        X                 Y               Z
 ---------------- ---------------- ----------------
     1.0277942189     4.7357362555    -0.0140038422


                Final and change from initial internal coordinates
                --------------------------------------------------



                                Z-matrix (autoz)
                                -------- 

 Units are Angstrom for bonds and degrees for angles

  Constants are marked with an asterisk (*).

      Type          Name      I     J     K     L     M      Value       Change
      ----------- --------  ----- ----- ----- ----- ----- ---------- ----------
    1 Stretch                  1     3                       2.26236    0.09128
    2*Stretch      cccc        2     3                       3.00000    0.00000
    3 Stretch                  3     4                       1.08915   -0.00500
    4 Stretch                  3     5                       1.08913   -0.00503
    5 Stretch                  3     6                       1.08915   -0.00500
    6 Bend                     1     3     4               105.76441   -1.89138
    7 Bend                     1     3     5               105.82036   -1.83543
    8 Bend                     1     3     6               105.75425   -1.90153
    9 Bend                     2     3     4                74.36004    1.61420
   10 Bend                     2     3     5                73.88301    2.44604
   11 Bend                     2     3     6                74.41825    1.56501
   12 Bend                     4     3     5               112.88603    1.66200
   13 Bend                     4     3     6               112.91540    1.69137
   14 Bend                     5     3     6               112.88923    1.66519

 ==============================================================================
                                internuclear distances
 ------------------------------------------------------------------------------
       center one      |      center two      | atomic units |  angstroms
 ------------------------------------------------------------------------------
    3 C                |   1 I                |     4.27523  |     2.26236
    4 H                |   3 C                |     2.05820  |     1.08915
    5 H                |   3 C                |     2.05815  |     1.08913
    6 H                |   3 C                |     2.05819  |     1.08915
 ------------------------------------------------------------------------------
                         number of included internuclear distances:          4
 ==============================================================================



 ==============================================================================
                                 internuclear angles
 ------------------------------------------------------------------------------
        center 1       |       center 2       |       center 3       |  degrees
 ------------------------------------------------------------------------------
    1 I                |   3 C                |   4 H                |   105.76
    1 I                |   3 C                |   5 H                |   105.82
    1 I                |   3 C                |   6 H                |   105.75
    4 H                |   3 C                |   5 H                |   112.89
    4 H                |   3 C                |   6 H                |   112.92
    5 H                |   3 C                |   6 H                |   112.89
 ------------------------------------------------------------------------------
                            number of included internuclear angles:          6
 ==============================================================================




 Task  times  cpu:       77.2s     wall:       77.3s


                                NWChem Input Module
                                -------------------


 Summary of allocated global arrays
-----------------------------------
  No active global arrays


MA_summarize_allocated_blocks: starting scan ...
MA_summarize_allocated_blocks: scan completed: 0 heap blocks, 0 stack blocks
MA usage statistics:

	allocation statistics:
					      heap	     stack
					      ----	     -----
	current number of blocks	         0	         0
	maximum number of blocks	        40	        58
	current total bytes		         0	         0
	maximum total bytes		 270695960	  33245704
	maximum total K-bytes		    270696	     33246
	maximum total M-bytes		       271	        34


                                     CITATION
                                     --------
                Please cite the following reference when publishing
                           results obtained with NWChem:

          E. Apra, E. J. Bylaska, W. A. de Jong, N. Govind, K. Kowalski,
       T. P. Straatsma, M. Valiev, H. J. J. van Dam, Y. Alexeev, J. Anchell,
       V. Anisimov, F. W. Aquino, R. Atta-Fynn, J. Autschbach, N. P. Bauman,
     J. C. Becca, D. E. Bernholdt, K. Bhaskaran-Nair, S. Bogatko, P. Borowski,
         J. Boschen, J. Brabec, A. Bruner, E. Cauet, Y. Chen, G. N. Chuev,
      C. J. Cramer, J. Daily, M. J. O. Deegan, T. H. Dunning Jr., M. Dupuis,
   K. G. Dyall, G. I. Fann, S. A. Fischer, A. Fonari, H. Fruchtl, L. Gagliardi,
      J. Garza, N. Gawande, S. Ghosh, K. Glaesemann, A. W. Gotz, J. Hammond,
       V. Helms, E. D. Hermes, K. Hirao, S. Hirata, M. Jacquelin, L. Jensen,
   B. G. Johnson, H. Jonsson, R. A. Kendall, M. Klemm, R. Kobayashi, V. Konkov,
      S. Krishnamoorthy, M. Krishnan, Z. Lin, R. D. Lins, R. J. Littlefield,
      A. J. Logsdail, K. Lopata, W. Ma, A. V. Marenich, J. Martin del Campo,
   D. Mejia-Rodriguez, J. E. Moore, J. M. Mullin, T. Nakajima, D. R. Nascimento,
    J. A. Nichols, P. J. Nichols, J. Nieplocha, A. Otero-de-la-Roza, B. Palmer,
    A. Panyala, T. Pirojsirikul, B. Peng, R. Peverati, J. Pittner, L. Pollack,
   R. M. Richard, P. Sadayappan, G. C. Schatz, W. A. Shelton, D. W. Silverstein,
   D. M. A. Smith, T. A. Soares, D. Song, M. Swart, H. L. Taylor, G. S. Thomas,
            V. Tipparaju, D. G. Truhlar, K. Tsemekhman, T. Van Voorhis,
      A. Vazquez-Mayagoitia, P. Verma, O. Villa, A. Vishnu, K. D. Vogiatzis,
        D. Wang, J. H. Weare, M. J. Williamson, T. L. Windus, K. Wolinski,
        A. T. Wong, Q. Wu, C. Yang, Q. Yu, M. Zacharias, Z. Zhang, Y. Zhao,
                                and R. J. Harrison
                        "NWChem: Past, present, and future
                         J. Chem. Phys. 152, 184102 (2020)
                               doi:10.1063/5.0004997

                                      AUTHORS
                                      -------
  E. Apra, E. J. Bylaska, N. Govind, K. Kowalski, M. Valiev, D. Mejia-Rodriguez,
       A. Kunitsa, N. P. Bauman, A. Panyala, W. A. de Jong, T. P. Straatsma,
   H. J. J. van Dam, D. Wang, T. L. Windus, J. Hammond, J. Autschbach, A. Woods,
    K. Bhaskaran-Nair, J. Brabec, K. Lopata, S. A. Fischer, S. Krishnamoorthy,
     M. Jacquelin, W. Ma, M. Klemm, O. Villa, Y. Chen, V. Anisimov, F. Aquino,
     S. Hirata, M. T. Hackler, E. Hermes, L. Jensen, J. E. Moore, J. C. Becca,
      V. Konjkov, T. Risthaus, M. Malagoli, A. Marenich, A. Otero-de-la-Roza,
        J. Mullin, P. Nichols, R. Peverati, J. Pittner, Y. Zhao, P.-D. Fan,
        A. Fonari, M. J. Williamson, R. J. Harrison, J. R. Rehr, M. Dupuis,
     D. Silverstein, D. M. A. Smith, J. Nieplocha, V. Tipparaju, M. Krishnan,
     B. E. Van Kuiken, A. Vazquez-Mayagoitia, M. Swart, Q. Wu, T. Van Voorhis,
     A. A. Auer, M. Nooijen, L. D. Crosby, E. Brown, G. Cisneros, G. I. Fann,
   H. Fruchtl, J. Garza, K. Hirao, R. A. Kendall, J. A. Nichols, K. Tsemekhman,
    K. Wolinski, J. Anchell, D. E. Bernholdt, P. Borowski, T. Clark, D. Clerc,
   H. Dachsel, M. J. O. Deegan, K. Dyall, D. Elwood, E. Glendening, M. Gutowski,
   A. C. Hess, J. Jaffe, B. G. Johnson, J. Ju, R. Kobayashi, R. Kutteh, Z. Lin,
   R. Littlefield, X. Long, B. Meng, T. Nakajima, S. Niu, L. Pollack, M. Rosing,
   K. Glaesemann, G. Sandrone, M. Stave, H. Taylor, G. Thomas, J. H. van Lenthe,
                               A. T. Wong, Z. Zhang.

 Total times  cpu:       77.2s     wall:       77.3s
