 argument  1 = CH3Cl_GS.nw



============================== echo of input deck ==============================
echo

start molecule

title "Title"
charge 0

geometry units angstroms print xyz autosym
Cl      -1.2728571670      2.0071196140     -0.0611253870
C       -0.6838721345      0.3444053855      0.0420583034
H        0.4083029377      0.3518389687      0.0415963364
H       -1.0514434448     -0.1078976286      0.9657550612
H       -1.0514444869     -0.2186321560     -0.8186285204
end

basis
  * library def2-svpd
end

dft
xc b3lyp
mult 1
end

driver
default
maxiter 99
xyz CH3Cl_GS
end

task dft optimize
================================================================================


                                         
                                         


             Northwest Computational Chemistry Package (NWChem) 7.2.2
             --------------------------------------------------------


                    Environmental Molecular Sciences Laboratory
                       Pacific Northwest National Laboratory
                                Richland, WA 99352

                              Copyright (c) 1994-2022
                       Pacific Northwest National Laboratory
                            Battelle Memorial Institute

             NWChem is an open-source computational chemistry package
                        distributed under the terms of the
                      Educational Community License (ECL) 2.0
             A copy of the license is included with this distribution
                              in the LICENSE.TXT file

                                  ACKNOWLEDGMENT
                                  --------------

            This software and its documentation were developed at the
            EMSL at Pacific Northwest National Laboratory, a multiprogram
            national laboratory, operated for the U.S. Department of Energy
            by Battelle under Contract Number DE-AC05-76RL01830. Support
            for this work was provided by the Department of Energy Office
            of Biological and Environmental Research, Office of Basic
            Energy Sciences, and the Office of Advanced Scientific Computing.


           Job information
           ---------------

    hostname        = iiserb-lab4
    program         = nwchem
    date            = Mon Jul  8 20:59:59 2024

    compiled        = Fri_Jun_07_08:00:10_2024
    source          = /home/conda/feedstock_root/build_artifacts/nwchem_1717738152402/work
    nwchem branch   = 7.2.2
    nwchem revision = 64ba0f0
    ga revision     = 5.8.0
    use scalapack   = T
    input           = CH3Cl_GS.nw
    prefix          = molecule.
    data base       = ./molecule.db
    status          = startup
    nproc           =        4
    time left       =     -1s



           Memory information
           ------------------

    heap     =   26214398 doubles =    200.0 Mbytes
    stack    =   26214395 doubles =    200.0 Mbytes
    global   =   52428800 doubles =    400.0 Mbytes (distinct from heap & stack)
    total    =  104857593 doubles =    800.0 Mbytes
    verify   = yes
    hardfail = no 


           Directory information
           ---------------------

  0 permanent = .
  0 scratch   = .




                                NWChem Input Module
                                -------------------


                                       Title
                                       -----

 Scaling coordinates for geometry "geometry" by  1.889725989
 (inverse scale =  0.529177249)

 C3V symmetry detected

          ------
          auto-z
          ------
  Looking for out-of-plane bends
  no constraints, skipping    0.0000000000000000     
  no constraints, skipping    0.0000000000000000     


                             Geometry "geometry" -> ""
                             -------------------------

 Output coordinates in angstroms (scale by  1.889725989 to convert to a.u.)

  No.       Tag          Charge          X              Y              Z
 ---- ---------------- ---------- -------------- -------------- --------------
    1 Cl                  17.0000     0.00000000     0.00000000     0.65283832
    2 C                    6.0000     0.00000000     0.00000000    -1.11412768
    3 H                    1.0000     0.72987290     0.72987290    -1.47116178
    4 H                    1.0000     0.26715202    -0.99702493    -1.47116178
    5 H                    1.0000    -0.99702493     0.26715202    -1.47116178

      Atomic Mass 
      ----------- 

      Cl                34.968850
      C                 12.000000
      H                  1.007825


 Effective nuclear repulsion energy (a.u.)      51.5846141935

            Nuclear Dipole moment (a.u.) 
            ----------------------------
        X                 Y               Z
 ---------------- ---------------- ----------------
     0.0000000000     0.0000000000     0.0000000000

      Symmetry information
      --------------------

 Group name             C3v       
 Group number             17
 Group order               6
 No. of unique centers     3

      Symmetry unique atoms

     1    2    3



                                Z-matrix (autoz)
                                -------- 

 Units are Angstrom for bonds and degrees for angles

      Type          Name      I     J     K     L     M      Value
      ----------- --------  ----- ----- ----- ----- ----- ----------
    1 Stretch                  1     2                       1.76697
    2 Stretch                  2     3                       1.09220
    3 Stretch                  2     4                       1.09220
    4 Stretch                  2     5                       1.09220
    5 Bend                     1     2     3               109.08038
    6 Bend                     1     2     4               109.08038
    7 Bend                     1     2     5               109.08038
    8 Bend                     3     2     4               109.85922
    9 Bend                     3     2     5               109.85922
   10 Bend                     4     2     5               109.85922


            XYZ format geometry
            -------------------
     5
 geometry
 Cl                    0.00000000     0.00000000     0.65283832
 C                     0.00000000     0.00000000    -1.11412768
 H                     0.72987290     0.72987290    -1.47116178
 H                     0.26715202    -0.99702493    -1.47116178
 H                    -0.99702493     0.26715202    -1.47116178

 ==============================================================================
                                internuclear distances
 ------------------------------------------------------------------------------
       center one      |      center two      | atomic units |  angstroms
 ------------------------------------------------------------------------------
    2 C                |   1 Cl               |     3.33908  |     1.76697
    3 H                |   2 C                |     2.06396  |     1.09220
    4 H                |   2 C                |     2.06396  |     1.09220
    5 H                |   2 C                |     2.06396  |     1.09220
 ------------------------------------------------------------------------------
                         number of included internuclear distances:          4
 ==============================================================================



 ==============================================================================
                                 internuclear angles
 ------------------------------------------------------------------------------
        center 1       |       center 2       |       center 3       |  degrees
 ------------------------------------------------------------------------------
    1 Cl               |   2 C                |   3 H                |   109.08
    1 Cl               |   2 C                |   4 H                |   109.08
    1 Cl               |   2 C                |   5 H                |   109.08
    3 H                |   2 C                |   4 H                |   109.86
    3 H                |   2 C                |   5 H                |   109.86
    4 H                |   2 C                |   5 H                |   109.86
 ------------------------------------------------------------------------------
                            number of included internuclear angles:          6
 ==============================================================================



  library name resolved from: environment
  library file name is: </home/iiserb/anaconda3/envs/chemstarx/share/nwchem/libraries/>
  


 Summary of "ao basis" -> "" (cartesian)
 ------------------------------------------------------------------------------
       Tag                 Description            Shells   Functions and Types
 ---------------- ------------------------------  ------  ---------------------
 *                         def2-svpd                  on all atoms 




                           NWChem Geometry Optimization
                           ----------------------------




                                       Title


  no constraints, skipping    0.0000000000000000     
 maximum gradient threshold         (gmax) =   0.000450
 rms gradient threshold             (grms) =   0.000300
 maximum cartesian step threshold   (xmax) =   0.001800
 rms cartesian step threshold       (xrms) =   0.001200
 fixed trust radius                (trust) =   0.300000
 maximum step size to saddle      (sadstp) =   0.100000
 energy precision                  (eprec) =   5.0D-06
 maximum number of steps          (nptopt) =   99
 initial hessian option           (inhess) =    0
 line search option               (linopt) =    1
 hessian update option            (modupd) =    1
 saddle point option              (modsad) =    0
 initial eigen-mode to follow     (moddir) =    0
 initial variable to follow       (vardir) =    0
 follow first negative mode     (firstneg) =    T
 apply conjugacy                    (opcg) =    F
 source of zmatrix                         =   autoz   


          -------------------
          Energy Minimization
          -------------------


 Names of Z-matrix variables 
    1              2              3              4              5         
    6              7              8              9             10         

 Variables with the same non-blank name are constrained to be equal


 Using diagonal initial Hessian 
 Scaling for Hessian diagonals: bonds = 1.00  angles = 0.25  torsions = 0.10

          --------
          Step   0
          --------


                         Geometry "geometry" -> "geometry"
                         ---------------------------------

 Output coordinates in angstroms (scale by  1.889725989 to convert to a.u.)

  No.       Tag          Charge          X              Y              Z
 ---- ---------------- ---------- -------------- -------------- --------------
    1 Cl                  17.0000     0.00000000     0.00000000     0.65283832
    2 C                    6.0000     0.00000000     0.00000000    -1.11412768
    3 H                    1.0000     0.72987290     0.72987290    -1.47116178
    4 H                    1.0000     0.26715202    -0.99702493    -1.47116178
    5 H                    1.0000    -0.99702493     0.26715202    -1.47116178

      Atomic Mass 
      ----------- 

      Cl                34.968850
      C                 12.000000
      H                  1.007825


 Effective nuclear repulsion energy (a.u.)      51.5846141935

            Nuclear Dipole moment (a.u.) 
            ----------------------------
        X                 Y               Z
 ---------------- ---------------- ----------------
     0.0000000000     0.0000000000     0.0000000000

      Symmetry information
      --------------------

 Group name             C3v       
 Group number             17
 Group order               6
 No. of unique centers     3

      Symmetry unique atoms

     1    2    3


                                 NWChem DFT Module
                                 -----------------


                                       Title


                      Basis "ao basis" -> "ao basis" (cartesian)
                      -----
  Cl (Chlorine)
  -------------
            Exponent  Coefficients 
       -------------- ---------------------------------------------------------
  1 S  1.04498276E+04  0.001971
  1 S  1.57173652E+03  0.014755
  1 S  3.57120655E+02  0.066679
  1 S  1.00251859E+02  0.172289
  1 S  3.08127276E+01  0.158838

  2 S  5.19237894E+01 -0.100093
  2 S  5.70457610E+00  0.608418
  2 S  2.35083768E+00  0.543522

  3 S  4.46051247E-01  1.000000

  4 S  1.68488562E-01  1.000000

  5 S  5.53442294E-02  1.000000

  6 P  3.07667906E+02 -0.008780
  6 P  7.21020155E+01 -0.063563
  6 P  2.25326803E+01 -0.240164
  6 P  7.89917654E+00 -0.477989
  6 P  2.87672683E+00 -0.385159

  7 P  7.74593640E-01  1.000000

  8 P  2.10376997E-01  1.000000

  9 P  5.00462711E-02  1.000000

 10 D  6.50000000E-01  1.000000

 11 D  1.22848034E-01  1.000000

  C (Carbon)
  ----------
            Exponent  Coefficients 
       -------------- ---------------------------------------------------------
  1 S  1.23840169E+03  0.005457
  1 S  1.86290050E+02  0.040638
  1 S  4.22511763E+01  0.180256
  1 S  1.16765579E+01  0.463151
  1 S  3.59305065E+00  0.440872

  2 S  4.02451474E-01  1.000000

  3 S  1.30901827E-01  1.000000

  4 S  6.70535403E-02  1.000000

  5 P  9.46809706E+00  0.038388
  5 P  2.01035451E+00  0.211170
  5 P  5.47710047E-01  0.513282

  6 P  1.52686138E-01  1.000000

  7 D  8.00000000E-01  1.000000

  8 D  1.17131851E-01  1.000000

  H (Hydrogen)
  ------------
            Exponent  Coefficients 
       -------------- ---------------------------------------------------------
  1 S  1.30107010E+01  0.019682
  1 S  1.96225720E+00  0.137965
  1 S  4.44537960E-01  0.478319

  2 S  1.21949620E-01  1.000000

  3 P  8.00000000E-01  1.000000

  4 P  1.17040991E-01  1.000000



 Summary of "ao basis" -> "ao basis" (cartesian)
 ------------------------------------------------------------------------------
       Tag                 Description            Shells   Functions and Types
 ---------------- ------------------------------  ------  ---------------------
 Cl                        def2-svpd                11       29   5s4p2d
 C                         def2-svpd                 8       22   4s2p2d
 H                         def2-svpd                 4        8   2s2p




 Summary of "ao basis" -> "ao basis" (cartesian)
 ------------------------------------------------------------------------------
       Tag                 Description            Shells   Functions and Types
 ---------------- ------------------------------  ------  ---------------------
 Cl                        def2-svpd                11       29   5s4p2d
 C                         def2-svpd                 8       22   4s2p2d
 H                         def2-svpd                 4        8   2s2p


      Symmetry analysis of basis
      --------------------------

        a1         29
        a2          2
        e          44

  Caching 1-el integrals 
  Rotation of axis 

            General Information
            -------------------
          SCF calculation type: DFT
          Wavefunction type:  closed shell.
          No. of atoms     :     5
          No. of electrons :    26
           Alpha electrons :    13
            Beta electrons :    13
          Charge           :     0
          Spin multiplicity:     1
          Use of symmetry is: on ; symmetry adaption is: on 
          Maximum number of iterations:  50
          AO basis - number of functions:    75
                     number of shells:    31
          Convergence on energy requested:  1.00D-06
          Convergence on density requested:  1.00D-05
          Convergence on gradient requested:  5.00D-04

              XC Information
              --------------
                         B3LYP Method XC Potential
                     Hartree-Fock (Exact) Exchange  0.200          
                        Slater Exchange Functional  0.800 local    
                    Becke 1988 Exchange Functional  0.720 non-local
              Lee-Yang-Parr Correlation Functional  0.810          
                  VWN I RPA Correlation Functional  0.190 local    

             Grid Information
             ----------------
          Grid used for XC integration:  medium    
          Radial quadrature: Mura-Knowles        
          Angular quadrature: Lebedev. 
          Tag              B.-S. Rad. Rad. Pts. Rad. Cut. Ang. Pts.
          ---              ---------- --------- --------- ---------
          Cl                  1.00       88          10.0       590
          C                   0.70       49          10.0       434
          H                   0.35       45          10.0       434
          Grid pruning is: on 
          Number of quadrature shells:   182
          Spatial weights used:  Erf1

          Convergence Information
          -----------------------
          Convergence aids based upon iterative change in 
          total energy or number of iterations. 
          Levelshifting, if invoked, occurs when the 
          HOMO/LUMO gap drops below (HL_TOL):  1.00D-02
          DIIS, if invoked, will attempt to extrapolate 
          using up to (NFOCK): 10 stored Fock matrices.

                    Damping( 0%)  Levelshifting(0.5)       DIIS
                  --------------- ------------------- ---------------
          dE  on:    start            ASAP                start   
          dE off:    2 iters         50 iters            50 iters 


      Screening Tolerance Information
      -------------------------------
          Density screening/tol_rho:  1.00D-10
          AO Gaussian exp screening on grid/accAOfunc:  14
          CD Gaussian exp screening on grid/accCDfunc:  20
          XC Gaussian exp screening on grid/accXCfunc:  20
          Schwarz screening/accCoul:  1.00D-08


      Superposition of Atomic Density Guess
      -------------------------------------

 Sum of atomic energies:        -498.45248681

      Non-variational initial energy
      ------------------------------

 Total energy =    -499.217560
 1-e energy   =    -788.611173
 2-e energy   =     237.808998
 HOMO         =      -0.385203
 LUMO         =       0.042488


      Symmetry analysis of molecular orbitals - initial
      -------------------------------------------------

  Numbering of irreducible representations: 

     1 a1          2 a2          3 e       

  Orbital symmetries:

     1 a1          2 a1          3 a1          4 a1          5 e       
     6 e           7 a1          8 a1          9 e          10 e       
    11 a1         12 e          13 e          14 a1         15 a1      
    16 e          17 e          18 a1         19 a1         20 e       
    21 e          22 e          23 e       

  WARNING: movecs_in_org=atomic not equal to movecs_in=./molecule.movecs
   Time after variat. SCF:      0.2
   Time prior to 1st pass:      0.2

 Grid_pts file          = ./molecule.gridpts.0
 Record size in doubles =  12289        No. of grid_pts per rec  =   3070
 Max. records in memory =     11        Max. recs in file   = 253312716


           Memory utilization after 1st SCF pass: 
           Heap Space remaining (MW):        0.00                  54
          Stack Space remaining (MW):       26.21            26213852

   convergence    iter        energy       DeltaE   RMS-Dens  Diis-err    time
 ---------------- ----- ----------------- --------- --------- ---------  ------
 d= 0,ls=0.0,diis     1   -499.9411397571 -5.52D+02  1.32D-02  3.50D-01     0.4
 d= 0,ls=0.0,diis     2   -499.9427094201 -1.57D-03  9.05D-03  1.99D-01     0.6
 d= 0,ls=0.0,diis     3   -499.9633831460 -2.07D-02  2.38D-03  4.13D-02     0.8
 d= 0,ls=0.0,diis     4   -499.9687627202 -5.38D-03  2.87D-04  8.11D-05     1.0
 d= 0,ls=0.0,diis     5   -499.9687710513 -8.33D-06  5.54D-05  9.08D-06     1.2
  Resetting Diis
 d= 0,ls=0.0,diis     6   -499.9687721729 -1.12D-06  1.23D-05  3.09D-07     1.4
 d= 0,ls=0.0,diis     7   -499.9687722227 -4.98D-08  2.51D-06  6.70D-09     1.6


         Total DFT energy =     -499.968772222660
      One electron energy =     -790.278110867858
           Coulomb energy =      273.470326635490
    Exchange-Corr. energy =      -34.745602183767
 Nuclear repulsion energy =       51.584614193474

 Numeric. integr. density =       25.999995837855

     Total iterative time =      1.4s



                  Occupations of the irreducible representations
                  ----------------------------------------------

                     irrep           alpha         beta
                     --------     --------     --------
                     a1                7.0          7.0
                     a2                0.0          0.0
                     e                 6.0          6.0


                       DFT Final Molecular Orbital Analysis
                       ------------------------------------

 Vector    1  Occ=2.000000D+00  E=-1.015378D+02  Symmetry=a1
              MO Center= -2.5D-21, -6.9D-21,  6.5D-01, r^2= 3.2D-03
   Bfn.  Coefficient  Atom+Function         Bfn.  Coefficient  Atom+Function  
  ----- ------------  ---------------      ----- ------------  ---------------
     1      0.993387  1 Cl s                  2      0.030510  1 Cl s          
     3     -0.025397  1 Cl s          

 Vector    2  Occ=2.000000D+00  E=-1.025526D+01  Symmetry=a1
              MO Center=  4.7D-20,  2.3D-20, -1.1D+00, r^2= 2.8D-02
   Bfn.  Coefficient  Atom+Function         Bfn.  Coefficient  Atom+Function  
  ----- ------------  ---------------      ----- ------------  ---------------
    30      0.987326  2 C  s                 31      0.062537  2 C  s          
    33     -0.055065  2 C  s          

 Vector    3  Occ=2.000000D+00  E=-9.469036D+00  Symmetry=a1
              MO Center=  1.6D-16,  2.2D-19,  6.5D-01, r^2= 6.6D-02
   Bfn.  Coefficient  Atom+Function         Bfn.  Coefficient  Atom+Function  
  ----- ------------  ---------------      ----- ------------  ---------------
     2      1.013580  1 Cl s                  1     -0.311073  1 Cl s          
     3      0.071356  1 Cl s          

 Vector    4  Occ=2.000000D+00  E=-7.239300D+00  Symmetry=a1
              MO Center=  1.1D-16,  3.7D-18,  6.5D-01, r^2= 5.8D-02
   Bfn.  Coefficient  Atom+Function         Bfn.  Coefficient  Atom+Function  
  ----- ------------  ---------------      ----- ------------  ---------------
     8      0.980264  1 Cl pz                32      0.099489  2 C  s          
    11     -0.054214  1 Cl pz                53     -0.028239  3 H  s          
    61     -0.028239  4 H  s                 69     -0.028239  5 H  s          

 Vector    5  Occ=2.000000D+00  E=-7.229285D+00  Symmetry=e
              MO Center= -4.3D-06, -2.9D-06,  6.5D-01, r^2= 5.8D-02
   Bfn.  Coefficient  Atom+Function         Bfn.  Coefficient  Atom+Function  
  ----- ------------  ---------------      ----- ------------  ---------------
     7      0.759254  1 Cl py                 6      0.621134  1 Cl px         
    10     -0.039868  1 Cl py                 9     -0.032615  1 Cl px         

 Vector    6  Occ=2.000000D+00  E=-7.229285D+00  Symmetry=e
              MO Center=  4.3D-06,  2.9D-06,  6.5D-01, r^2= 5.8D-02
   Bfn.  Coefficient  Atom+Function         Bfn.  Coefficient  Atom+Function  
  ----- ------------  ---------------      ----- ------------  ---------------
     6      0.759254  1 Cl px                 7     -0.621134  1 Cl py         
     9     -0.039868  1 Cl px                10      0.032615  1 Cl py         

 Vector    7  Occ=2.000000D+00  E=-8.618551D-01  Symmetry=a1
              MO Center=  1.2D-15,  9.3D-16,  8.2D-02, r^2= 1.1D+00
   Bfn.  Coefficient  Atom+Function         Bfn.  Coefficient  Atom+Function  
  ----- ------------  ---------------      ----- ------------  ---------------
     3      0.611525  1 Cl s                  2     -0.447478  1 Cl s          
     4      0.270267  1 Cl s                 31      0.266684  2 C  s          
    30     -0.131905  2 C  s                 33     -0.103665  2 C  s          
    36      0.093986  2 C  pz                14     -0.087187  1 Cl pz         
    11     -0.080166  1 Cl pz                 1      0.072424  1 Cl s          

 Vector    8  Occ=2.000000D+00  E=-6.768350D-01  Symmetry=a1
              MO Center= -9.5D-18, -8.6D-18, -7.5D-01, r^2= 2.0D+00
   Bfn.  Coefficient  Atom+Function         Bfn.  Coefficient  Atom+Function  
  ----- ------------  ---------------      ----- ------------  ---------------
    31     -0.433481  2 C  s                  3      0.416837  1 Cl s          
    32     -0.366018  2 C  s                  2     -0.287624  1 Cl s          
    33      0.236135  2 C  s                  4      0.213704  1 Cl s          
    30      0.205456  2 C  s                 52     -0.184912  3 H  s          
    60     -0.184912  4 H  s                 68     -0.184912  5 H  s          

 Vector    9  Occ=2.000000D+00  E=-4.559495D-01  Symmetry=e
              MO Center=  3.2D-02,  1.9D-01, -1.0D+00, r^2= 1.5D+00
   Bfn.  Coefficient  Atom+Function         Bfn.  Coefficient  Atom+Function  
  ----- ------------  ---------------      ----- ------------  ---------------
    34      0.389521  2 C  px                52      0.318339  3 H  s          
    68     -0.247896  5 H  s                 35      0.199844  2 C  py         
    37      0.162887  2 C  px                12      0.160397  1 Cl px         
     9      0.134209  1 Cl px                38      0.083570  2 C  py         
    13      0.082292  1 Cl py                 6      0.079170  1 Cl px         

 Vector   10  Occ=2.000000D+00  E=-4.559495D-01  Symmetry=e
              MO Center= -3.2D-02, -1.9D-01, -1.0D+00, r^2= 1.5D+00
   Bfn.  Coefficient  Atom+Function         Bfn.  Coefficient  Atom+Function  
  ----- ------------  ---------------      ----- ------------  ---------------
    35      0.389521  2 C  py                60     -0.326916  4 H  s          
    68      0.224464  5 H  s                 34     -0.199844  2 C  px         
    38      0.162887  2 C  py                13      0.160397  1 Cl py         
    10      0.134209  1 Cl py                52      0.102452  3 H  s          
    37     -0.083570  2 C  px                12     -0.082292  1 Cl px         

 Vector   11  Occ=2.000000D+00  E=-4.253688D-01  Symmetry=a1
              MO Center= -6.6D-15, -5.9D-15,  2.5D-02, r^2= 2.0D+00
   Bfn.  Coefficient  Atom+Function         Bfn.  Coefficient  Atom+Function  
  ----- ------------  ---------------      ----- ------------  ---------------
    32      0.887295  2 C  s                 14      0.455096  1 Cl pz         
    11      0.380624  1 Cl pz                36     -0.370357  2 C  pz         
    53     -0.269405  3 H  s                 61     -0.269405  4 H  s          
    69     -0.269405  5 H  s                  8      0.220502  1 Cl pz         
    39     -0.171708  2 C  pz                 3      0.161850  1 Cl s          

 Vector   12  Occ=2.000000D+00  E=-3.039668D-01  Symmetry=e
              MO Center= -9.5D-03, -3.7D-02,  3.9D-01, r^2= 1.7D+00
   Bfn.  Coefficient  Atom+Function         Bfn.  Coefficient  Atom+Function  
  ----- ------------  ---------------      ----- ------------  ---------------
    13      0.507592  1 Cl py                10      0.405498  1 Cl py         
    12     -0.289582  1 Cl px                 7      0.230730  1 Cl py         
     9     -0.231337  1 Cl px                60      0.172124  4 H  s          
    35     -0.140826  2 C  py                 6     -0.131632  1 Cl px         
    68     -0.125182  5 H  s                 61      0.115579  4 H  s          

 Vector   13  Occ=2.000000D+00  E=-3.039668D-01  Symmetry=e
              MO Center=  9.5D-03,  3.7D-02,  3.9D-01, r^2= 1.7D+00
   Bfn.  Coefficient  Atom+Function         Bfn.  Coefficient  Atom+Function  
  ----- ------------  ---------------      ----- ------------  ---------------
    12      0.507592  1 Cl px                 9      0.405498  1 Cl px         
    13      0.289582  1 Cl py                 6      0.230730  1 Cl px         
    10      0.231337  1 Cl py                52     -0.171650  3 H  s          
    34     -0.140826  2 C  px                 7      0.131632  1 Cl py         
    68      0.126478  5 H  s                 53     -0.115260  3 H  s          

 Vector   14  Occ=0.000000D+00  E= 2.323514D-03  Symmetry=a1
              MO Center=  2.3D-16,  2.2D-16, -1.1D+00, r^2= 6.2D+00
   Bfn.  Coefficient  Atom+Function         Bfn.  Coefficient  Atom+Function  
  ----- ------------  ---------------      ----- ------------  ---------------
    33      4.025408  2 C  s                 32     -2.654467  2 C  s          
    46     -0.696685  2 C  dxx               49     -0.696685  2 C  dyy        
    51     -0.639894  2 C  dzz                5     -0.560893  1 Cl s          
    31     -0.469525  2 C  s                 14     -0.360010  1 Cl pz         
     4      0.316300  1 Cl s                 53      0.222977  3 H  s          

 Vector   15  Occ=0.000000D+00  E= 1.777307D-02  Symmetry=a1
              MO Center=  4.4D-17, -3.0D-16,  5.5D-01, r^2= 7.3D+00
   Bfn.  Coefficient  Atom+Function         Bfn.  Coefficient  Atom+Function  
  ----- ------------  ---------------      ----- ------------  ---------------
     5      2.364284  1 Cl s                  4     -1.064907  1 Cl s          
    33      0.907539  2 C  s                 24     -0.503434  1 Cl dxx        
    27     -0.503434  1 Cl dyy               29     -0.492204  1 Cl dzz        
     3     -0.362758  1 Cl s                 32      0.322856  2 C  s          
    36      0.256202  2 C  pz                39      0.234500  2 C  pz         

 Vector   16  Occ=0.000000D+00  E= 6.640403D-02  Symmetry=e
              MO Center= -2.6D-01, -3.1D-01, -2.1D-01, r^2= 9.0D+00
   Bfn.  Coefficient  Atom+Function         Bfn.  Coefficient  Atom+Function  
  ----- ------------  ---------------      ----- ------------  ---------------
    61      1.572343  4 H  s                 69     -1.488586  5 H  s          
    16      0.781095  1 Cl py                66      0.766744  4 H  py         
    73     -0.721239  5 H  px                15     -0.710407  1 Cl px         
    50     -0.499079  2 C  dyz               48      0.453913  2 C  dxz        
    38      0.322549  2 C  py                37     -0.293359  2 C  px         

 Vector   17  Occ=0.000000D+00  E= 6.640403D-02  Symmetry=e
              MO Center=  2.6D-01,  3.1D-01, -2.1D-01, r^2= 9.0D+00
   Bfn.  Coefficient  Atom+Function         Bfn.  Coefficient  Atom+Function  
  ----- ------------  ---------------      ----- ------------  ---------------
    53      1.767228  3 H  s                 69     -0.956149  5 H  s          
    61     -0.811079  4 H  s                 15     -0.781095  1 Cl px         
    16     -0.710407  1 Cl py                57     -0.653057  3 H  px         
    58     -0.641725  3 H  py                73     -0.515335  5 H  px         
    48      0.499079  2 C  dxz               50      0.453913  2 C  dyz        

 Vector   18  Occ=0.000000D+00  E= 8.687186D-02  Symmetry=a1
              MO Center= -5.0D-15, -1.2D-13, -7.9D-01, r^2= 9.7D+00
   Bfn.  Coefficient  Atom+Function         Bfn.  Coefficient  Atom+Function  
  ----- ------------  ---------------      ----- ------------  ---------------
    33      9.666402  2 C  s                  5     -5.337746  1 Cl s          
    32     -4.454509  2 C  s                 17      2.281904  1 Cl pz         
    46     -1.210499  2 C  dxx               49     -1.210499  2 C  dyy        
    51     -1.048948  2 C  dzz                4      0.990314  1 Cl s          
    24      0.524535  1 Cl dxx               27      0.524535  1 Cl dyy        

 Vector   19  Occ=0.000000D+00  E= 9.180667D-02  Symmetry=a1
              MO Center=  7.8D-15,  3.1D-15,  1.0D+00, r^2= 7.9D+00
   Bfn.  Coefficient  Atom+Function         Bfn.  Coefficient  Atom+Function  
  ----- ------------  ---------------      ----- ------------  ---------------
    17      1.499680  1 Cl pz                32      1.070559  2 C  s          
    29     -0.762773  1 Cl dzz                4     -0.685836  1 Cl s          
    51      0.567269  2 C  dzz                5      0.496514  1 Cl s          
    33      0.404837  2 C  s                 36     -0.313974  2 C  pz         
    11     -0.283035  1 Cl pz                14     -0.280970  1 Cl pz         

 Vector   20  Occ=0.000000D+00  E= 1.166086D-01  Symmetry=e
              MO Center= -9.1D-02,  1.4D-01, -7.3D-01, r^2= 6.0D+00
   Bfn.  Coefficient  Atom+Function         Bfn.  Coefficient  Atom+Function  
  ----- ------------  ---------------      ----- ------------  ---------------
    16      0.629470  1 Cl py                61      0.592202  4 H  s          
    57     -0.442893  3 H  px                66     -0.397407  4 H  py         
    53     -0.379943  3 H  s                 74      0.368385  5 H  py         
    25     -0.282265  1 Cl dxy               13     -0.258123  1 Cl py         
    73      0.258626  5 H  px                35      0.212857  2 C  py         

 Vector   21  Occ=0.000000D+00  E= 1.166086D-01  Symmetry=e
              MO Center=  9.1D-02, -1.4D-01, -7.3D-01, r^2= 6.0D+00
   Bfn.  Coefficient  Atom+Function         Bfn.  Coefficient  Atom+Function  
  ----- ------------  ---------------      ----- ------------  ---------------
    15      0.629470  1 Cl px                69      0.561268  5 H  s          
    53     -0.464456  3 H  s                 58     -0.441368  3 H  py         
    65      0.412637  4 H  px                73     -0.353156  5 H  px         
    25     -0.345051  1 Cl dxy               74      0.260150  5 H  py         
    12     -0.258123  1 Cl px                47      0.236927  2 C  dxy        

 Vector   22  Occ=0.000000D+00  E= 1.506084D-01  Symmetry=e
              MO Center= -6.5D-02, -5.8D-03, -1.1D+00, r^2= 7.8D+00
   Bfn.  Coefficient  Atom+Function         Bfn.  Coefficient  Atom+Function  
  ----- ------------  ---------------      ----- ------------  ---------------
    47      1.242270  2 C  dxy               74      1.225672  5 H  py         
    50      1.054875  2 C  dyz               53     -0.918070  3 H  s          
    59     -0.891621  3 H  pz                61      0.747193  4 H  s          
    67      0.725667  4 H  pz                65      0.705316  4 H  px         
    58      0.696684  3 H  py                16     -0.687204  1 Cl py         

 Vector   23  Occ=0.000000D+00  E= 1.506084D-01  Symmetry=e
              MO Center=  6.5D-02,  5.8D-03, -1.1D+00, r^2= 7.8D+00
   Bfn.  Coefficient  Atom+Function         Bfn.  Coefficient  Atom+Function  
  ----- ------------  ---------------      ----- ------------  ---------------
    65      1.067794  4 H  px                48      1.054875  2 C  dxz        
    57      1.012439  3 H  px                69      0.961440  5 H  s          
    75      0.933741  5 H  pz                58     -0.737275  3 H  py         
    15     -0.687204  1 Cl px                61     -0.628704  4 H  s          
    46     -0.621135  2 C  dxx               49      0.621135  2 C  dyy        

 Vector   24  Occ=0.000000D+00  E= 2.117705D-01  Symmetry=a1
              MO Center= -2.9D-13,  4.6D-13, -6.5D-01, r^2= 8.9D+00
   Bfn.  Coefficient  Atom+Function         Bfn.  Coefficient  Atom+Function  
  ----- ------------  ---------------      ----- ------------  ---------------
    32     11.972795  2 C  s                 33     -4.149700  2 C  s          
    53     -3.002517  3 H  s                 61     -3.002517  4 H  s          
    69     -3.002517  5 H  s                  5     -2.767127  1 Cl s          
    46      2.257288  2 C  dxx               49      2.257288  2 C  dyy        
    17      1.798109  1 Cl pz                51      1.652846  2 C  dzz        

 Vector   25  Occ=0.000000D+00  E= 2.142144D-01  Symmetry=e
              MO Center= -2.0D-01, -6.3D-02,  3.1D-02, r^2= 5.4D+00
   Bfn.  Coefficient  Atom+Function         Bfn.  Coefficient  Atom+Function  
  ----- ------------  ---------------      ----- ------------  ---------------
    26      1.058091  1 Cl dxz               69     -0.938536  5 H  s          
    73     -0.886093  5 H  px                61      0.705839  4 H  s          
    66      0.675572  4 H  py                75      0.663275  5 H  pz         
    28     -0.641512  1 Cl dyz               48      0.524664  2 C  dxz        
    67     -0.498825  4 H  pz                46     -0.355758  2 C  dxx        

 Vector   26  Occ=0.000000D+00  E= 2.142144D-01  Symmetry=e
              MO Center=  2.0D-01,  6.3D-02,  3.1D-02, r^2= 5.4D+00
   Bfn.  Coefficient  Atom+Function         Bfn.  Coefficient  Atom+Function  
  ----- ------------  ---------------      ----- ------------  ---------------
    28      1.058091  1 Cl dyz               53      0.949380  3 H  s          
    47      0.711517  2 C  dxy               61     -0.676212  4 H  s          
    59     -0.670939  3 H  pz                57     -0.664606  3 H  px         
    26      0.641512  1 Cl dxz               58     -0.639831  3 H  py         
    66     -0.620838  4 H  py                50      0.524664  2 C  dyz        

 Vector   27  Occ=0.000000D+00  E= 2.591609D-01  Symmetry=e
              MO Center=  6.9D-02,  8.1D-02, -5.5D-02, r^2= 5.5D+00
   Bfn.  Coefficient  Atom+Function         Bfn.  Coefficient  Atom+Function  
  ----- ------------  ---------------      ----- ------------  ---------------
    57     -0.695605  3 H  px                24      0.691168  1 Cl dxx        
    27     -0.691168  1 Cl dyy               58      0.671085  3 H  py         
    46      0.566065  2 C  dxx               49     -0.566065  2 C  dyy        
    66     -0.473638  4 H  py                73      0.474885  5 H  px         
    61      0.449621  4 H  s                 69     -0.428562  5 H  s          

 Vector   28  Occ=0.000000D+00  E= 2.591609D-01  Symmetry=e
              MO Center= -6.9D-02, -8.1D-02, -5.5D-02, r^2= 5.5D+00
   Bfn.  Coefficient  Atom+Function         Bfn.  Coefficient  Atom+Function  
  ----- ------------  ---------------      ----- ------------  ---------------
    25      1.382337  1 Cl dxy               47      1.132131  2 C  dxy        
    65      0.877927  4 H  px                74      0.846928  5 H  py         
    53     -0.507019  3 H  s                 58     -0.323562  3 H  py         
    19      0.289524  1 Cl dxy               69      0.271747  5 H  s          
    57     -0.266796  3 H  px                26      0.264824  1 Cl dxz        

 Vector   29  Occ=0.000000D+00  E= 2.857854D-01  Symmetry=a1
              MO Center=  9.4D-13, -1.3D-13, -4.5D-01, r^2= 8.3D+00
   Bfn.  Coefficient  Atom+Function         Bfn.  Coefficient  Atom+Function  
  ----- ------------  ---------------      ----- ------------  ---------------
    32     15.898769  2 C  s                 33     -8.528616  2 C  s          
     5      7.270620  1 Cl s                 53     -4.353074  3 H  s          
    61     -4.353074  4 H  s                 69     -4.353074  5 H  s          
     4     -1.896729  1 Cl s                 24     -1.804951  1 Cl dxx        
    27     -1.804951  1 Cl dyy               17     -1.750902  1 Cl pz         

 Vector   30  Occ=0.000000D+00  E= 3.134554D-01  Symmetry=a1
              MO Center=  1.7D-14, -7.1D-14, -1.1D+00, r^2= 9.3D+00
   Bfn.  Coefficient  Atom+Function         Bfn.  Coefficient  Atom+Function  
  ----- ------------  ---------------      ----- ------------  ---------------
    33     16.761575  2 C  s                 32     -6.254650  2 C  s          
     5     -5.356278  1 Cl s                 17      2.731758  1 Cl pz         
    51     -2.434619  2 C  dzz                4      1.799809  1 Cl s          
    46     -1.511126  2 C  dxx               49     -1.511126  2 C  dyy        
    39     -1.327330  2 C  pz                53     -1.259681  3 H  s          

 Vector   31  Occ=0.000000D+00  E= 3.369506D-01  Symmetry=a2
              MO Center=  1.6D-13,  2.0D-13, -1.5D+00, r^2= 5.9D+00
   Bfn.  Coefficient  Atom+Function         Bfn.  Coefficient  Atom+Function  
  ----- ------------  ---------------      ----- ------------  ---------------
    65      1.463517  4 H  px                74     -1.463517  5 H  py         
    57     -1.071369  3 H  px                58      1.071369  3 H  py         
    66      0.392148  4 H  py                73     -0.392148  5 H  px         

 Vector   32  Occ=0.000000D+00  E= 3.412236D-01  Symmetry=e
              MO Center= -3.4D-01, -4.1D-01, -1.2D+00, r^2= 6.5D+00
   Bfn.  Coefficient  Atom+Function         Bfn.  Coefficient  Atom+Function  
  ----- ------------  ---------------      ----- ------------  ---------------
    61      6.877559  4 H  s                 69     -6.505199  5 H  s          
    38      2.835867  2 C  py                37     -2.575099  2 C  px         
    66      2.336478  4 H  py                73     -2.210181  5 H  px         
    67      1.726543  4 H  pz                75     -1.633065  5 H  pz         
    28     -0.743163  1 Cl dyz               26      0.674827  1 Cl dxz        

 Vector   33  Occ=0.000000D+00  E= 3.412236D-01  Symmetry=e
              MO Center=  3.4D-01,  4.1D-01, -1.2D+00, r^2= 6.5D+00
   Bfn.  Coefficient  Atom+Function         Bfn.  Coefficient  Atom+Function  
  ----- ------------  ---------------      ----- ------------  ---------------
    53      7.726539  3 H  s                 69     -4.185743  5 H  s          
    61     -3.540796  4 H  s                 37     -2.835867  2 C  px         
    38     -2.575099  2 C  py                59      1.939671  3 H  pz         
    57     -1.920605  3 H  px                58     -1.921098  3 H  py         
    73     -1.419899  5 H  px                66     -1.200784  4 H  py         

 Vector   34  Occ=0.000000D+00  E= 3.587964D-01  Symmetry=a1
              MO Center=  4.7D-13,  3.9D-13, -3.0D-01, r^2= 9.1D+00
   Bfn.  Coefficient  Atom+Function         Bfn.  Coefficient  Atom+Function  
  ----- ------------  ---------------      ----- ------------  ---------------
    32      7.942993  2 C  s                  5     -4.830918  1 Cl s          
    33      4.003888  2 C  s                 53     -3.577361  3 H  s          
    61     -3.577361  4 H  s                 69     -3.577361  5 H  s          
    29      2.000052  1 Cl dzz               39     -1.932846  2 C  pz         
     4      1.672239  1 Cl s                 66     -1.641247  4 H  py         

 Vector   35  Occ=0.000000D+00  E= 3.821117D-01  Symmetry=a1
              MO Center= -2.9D-13, -2.7D-13,  5.8D-01, r^2= 7.1D+00
   Bfn.  Coefficient  Atom+Function         Bfn.  Coefficient  Atom+Function  
  ----- ------------  ---------------      ----- ------------  ---------------
    33      3.428618  2 C  s                  4     -2.243322  1 Cl s          
    32      2.190610  2 C  s                 29     -2.047288  1 Cl dzz        
    17      1.840386  1 Cl pz                39      1.821914  2 C  pz         
     5     -1.794992  1 Cl s                 46     -1.668157  2 C  dxx        
    49     -1.668157  2 C  dyy               14      1.562792  1 Cl pz         

 Vector   36  Occ=0.000000D+00  E= 3.899698D-01  Symmetry=e
              MO Center= -9.6D-02, -2.7D-01, -4.6D-01, r^2= 7.1D+00
   Bfn.  Coefficient  Atom+Function         Bfn.  Coefficient  Atom+Function  
  ----- ------------  ---------------      ----- ------------  ---------------
    61      2.178710  4 H  s                 66      2.148592  4 H  py         
    28      1.714272  1 Cl dyz               73     -1.691845  5 H  px         
    69     -1.682795  5 H  s                 38      1.477219  2 C  py         
    26     -1.090403  1 Cl dxz               46     -0.966044  2 C  dxx        
    49      0.966044  2 C  dyy               37     -0.939620  2 C  px         

 Vector   37  Occ=0.000000D+00  E= 3.899698D-01  Symmetry=e
              MO Center=  9.6D-02,  2.7D-01, -4.6D-01, r^2= 7.1D+00
   Bfn.  Coefficient  Atom+Function         Bfn.  Coefficient  Atom+Function  
  ----- ------------  ---------------      ----- ------------  ---------------
    53      2.229441  3 H  s                 47      1.932089  2 C  dxy        
    26     -1.714272  1 Cl dxz               58     -1.636295  3 H  py         
    57     -1.550026  3 H  px                69     -1.544195  5 H  s          
    37     -1.477219  2 C  px                73     -1.453811  5 H  px         
    28     -1.090403  1 Cl dyz               38     -0.939620  2 C  py         

 Vector   38  Occ=0.000000D+00  E= 4.216672D-01  Symmetry=a1
              MO Center=  2.7D-12,  1.9D-12, -1.2D+00, r^2= 6.5D+00
   Bfn.  Coefficient  Atom+Function         Bfn.  Coefficient  Atom+Function  
  ----- ------------  ---------------      ----- ------------  ---------------
    32     21.740566  2 C  s                 53     -7.589248  3 H  s          
    61     -7.589248  4 H  s                 69     -7.589248  5 H  s          
    33     -6.727863  2 C  s                 46      4.103583  2 C  dxx        
    49      4.103583  2 C  dyy               59     -2.741441  3 H  pz         
    67     -2.741441  4 H  pz                75     -2.741441  5 H  pz         

 Vector   39  Occ=0.000000D+00  E= 4.381805D-01  Symmetry=e
              MO Center=  8.4D-03,  3.9D-03, -7.0D-01, r^2= 7.0D+00
   Bfn.  Coefficient  Atom+Function         Bfn.  Coefficient  Atom+Function  
  ----- ------------  ---------------      ----- ------------  ---------------
    69      8.941040  5 H  s                 61     -7.308757  4 H  s          
    48     -3.927268  2 C  dxz               50      2.763231  2 C  dyz        
    46     -2.403292  2 C  dxx               49      2.403292  2 C  dyy        
    73      2.057800  5 H  px                37      1.889175  2 C  px         
    53     -1.632284  3 H  s                 65      1.592471  4 H  px         

 Vector   40  Occ=0.000000D+00  E= 4.381805D-01  Symmetry=e
              MO Center= -8.4D-03, -3.9D-03, -7.0D-01, r^2= 7.0D+00
   Bfn.  Coefficient  Atom+Function         Bfn.  Coefficient  Atom+Function  
  ----- ------------  ---------------      ----- ------------  ---------------
    53      9.381825  3 H  s                 61     -6.104511  4 H  s          
    47     -4.806585  2 C  dxy               50      3.927268  2 C  dyz        
    69     -3.277313  5 H  s                 48      2.763231  2 C  dxz        
    58     -1.919649  3 H  py                38     -1.889175  2 C  py         
    66     -1.868772  4 H  py                57     -1.486325  3 H  px         

 Vector   41  Occ=0.000000D+00  E= 4.723448D-01  Symmetry=e
              MO Center=  1.1D-01,  1.6D-01, -1.0D+00, r^2= 6.5D+00
   Bfn.  Coefficient  Atom+Function         Bfn.  Coefficient  Atom+Function  
  ----- ------------  ---------------      ----- ------------  ---------------
    61      5.830518  4 H  s                 69     -5.325311  5 H  s          
    50      4.341195  2 C  dyz               46      4.116674  2 C  dxx        
    49     -4.116674  2 C  dyy               48     -3.709697  2 C  dxz        
    58      2.826359  3 H  py                57     -2.723526  3 H  px         
    67      2.550956  4 H  pz                74      2.351193  5 H  py         

 Vector   42  Occ=0.000000D+00  E= 4.723448D-01  Symmetry=e
              MO Center= -1.1D-01, -1.6D-01, -1.0D+00, r^2= 6.5D+00
   Bfn.  Coefficient  Atom+Function         Bfn.  Coefficient  Atom+Function  
  ----- ------------  ---------------      ----- ------------  ---------------
    47      8.233347  2 C  dxy               53     -6.440820  3 H  s          
    48      4.341195  2 C  dxz               50      3.709697  2 C  dyz        
    69      3.657932  5 H  s                 65      3.327791  4 H  px         
    74      2.997862  5 H  py                59     -2.817975  3 H  pz         
    61      2.782888  4 H  s                 75      1.600411  5 H  pz         

 Vector   43  Occ=0.000000D+00  E= 5.243746D-01  Symmetry=a1
              MO Center= -4.1D-13, -6.0D-13, -1.1D+00, r^2= 6.1D+00
   Bfn.  Coefficient  Atom+Function         Bfn.  Coefficient  Atom+Function  
  ----- ------------  ---------------      ----- ------------  ---------------
    32     56.241010  2 C  s                 53    -18.754219  3 H  s          
    61    -18.754219  4 H  s                 69    -18.754219  5 H  s          
    33    -18.351432  2 C  s                 46      9.275492  2 C  dxx        
    49      9.275492  2 C  dyy               51      7.577849  2 C  dzz        
    66     -4.878410  4 H  py                73     -4.878410  5 H  px         

 Vector   44  Occ=0.000000D+00  E= 8.110768D-01  Symmetry=e
              MO Center=  5.0D-02,  4.8D-02, -5.5D-01, r^2= 4.0D+00
   Bfn.  Coefficient  Atom+Function         Bfn.  Coefficient  Atom+Function  
  ----- ------------  ---------------      ----- ------------  ---------------
    37      1.631825  2 C  px                38     -1.600474  2 C  py         
    69      1.433451  5 H  s                 61     -1.417486  4 H  s          
    48     -1.365406  2 C  dxz               46     -1.348063  2 C  dxx        
    49      1.348063  2 C  dyy               50      1.339174  2 C  dyz        
    68      0.853164  5 H  s                 60     -0.843662  4 H  s          

 Vector   45  Occ=0.000000D+00  E= 8.110768D-01  Symmetry=e
              MO Center= -5.0D-02, -4.8D-02, -5.5D-01, r^2= 4.0D+00
   Bfn.  Coefficient  Atom+Function         Bfn.  Coefficient  Atom+Function  
  ----- ------------  ---------------      ----- ------------  ---------------
    47      2.696126  2 C  dxy               53     -1.645990  3 H  s          
    38      1.631825  2 C  py                37      1.600474  2 C  px         
    50     -1.365406  2 C  dyz               48     -1.339174  2 C  dxz        
    52     -0.979663  3 H  s                 61      0.836821  4 H  s          
    69      0.809169  5 H  s                 25     -0.748013  1 Cl dxy        

 Vector   46  Occ=0.000000D+00  E= 8.158057D-01  Symmetry=a1
              MO Center=  3.0D-13, -7.4D-13, -9.6D-01, r^2= 4.3D+00
   Bfn.  Coefficient  Atom+Function         Bfn.  Coefficient  Atom+Function  
  ----- ------------  ---------------      ----- ------------  ---------------
    32     24.069609  2 C  s                 53     -7.533815  3 H  s          
    61     -7.533815  4 H  s                 69     -7.533815  5 H  s          
    33     -6.963565  2 C  s                  4     -5.266144  1 Cl s          
     5      4.153209  1 Cl s                 51      2.891021  2 C  dzz        
    46      2.342765  2 C  dxx               49      2.342765  2 C  dyy        

 Vector   47  Occ=0.000000D+00  E= 8.521388D-01  Symmetry=e
              MO Center= -2.4D-01, -9.6D-02, -8.9D-01, r^2= 3.6D+00
   Bfn.  Coefficient  Atom+Function         Bfn.  Coefficient  Atom+Function  
  ----- ------------  ---------------      ----- ------------  ---------------
    69      8.644085  5 H  s                 61     -6.797559  4 H  s          
    37      4.424676  2 C  px                38     -2.906286  2 C  py         
    73      2.718975  5 H  px                66     -2.090360  4 H  py         
    53     -1.846526  3 H  s                 75      1.039680  5 H  pz         
    74     -0.872023  5 H  py                65      0.864117  4 H  px         

 Vector   48  Occ=0.000000D+00  E= 8.521388D-01  Symmetry=e
              MO Center=  2.4D-01,  9.6D-02, -8.9D-01, r^2= 3.6D+00
   Bfn.  Coefficient  Atom+Function         Bfn.  Coefficient  Atom+Function  
  ----- ------------  ---------------      ----- ------------  ---------------
    53      8.915237  3 H  s                 61     -6.056757  4 H  s          
    38     -4.424676  2 C  py                37     -2.906286  2 C  px         
    69     -2.858481  5 H  s                 58     -2.143250  3 H  py         
    57     -2.016643  3 H  px                66     -2.015568  4 H  py         
    59      1.072293  3 H  pz                73     -1.019457  5 H  px         

 Vector   49  Occ=0.000000D+00  E= 9.355502D-01  Symmetry=a1
              MO Center= -4.1D-15,  3.3D-14, -5.7D-01, r^2= 4.0D+00
   Bfn.  Coefficient  Atom+Function         Bfn.  Coefficient  Atom+Function  
  ----- ------------  ---------------      ----- ------------  ---------------
    32     14.801177  2 C  s                 53     -7.122989  3 H  s          
    61     -7.122989  4 H  s                 69     -7.122989  5 H  s          
    39     -4.509596  2 C  pz                 4      2.576077  1 Cl s          
    33      2.005747  2 C  s                 66     -1.598309  4 H  py         
    73     -1.598309  5 H  px                46      1.482464  2 C  dxx        

 Vector   50  Occ=0.000000D+00  E= 9.686866D-01  Symmetry=e
              MO Center= -2.5D-02,  8.8D-03,  6.6D-01, r^2= 1.6D+00
   Bfn.  Coefficient  Atom+Function         Bfn.  Coefficient  Atom+Function  
  ----- ------------  ---------------      ----- ------------  ---------------
    19      0.959841  1 Cl dxy               18     -0.760689  1 Cl dxx        
    21      0.760689  1 Cl dyy               48     -0.605290  2 C  dxz        
    25     -0.595823  1 Cl dxy               37      0.480589  2 C  px         
    24      0.472199  1 Cl dxx               27     -0.472199  1 Cl dyy        
    69      0.405328  5 H  s                 75     -0.284962  5 H  pz         

 Vector   51  Occ=0.000000D+00  E= 9.686866D-01  Symmetry=e
              MO Center=  2.5D-02, -8.8D-03,  6.6D-01, r^2= 1.6D+00
   Bfn.  Coefficient  Atom+Function         Bfn.  Coefficient  Atom+Function  
  ----- ------------  ---------------      ----- ------------  ---------------
    19      1.521379  1 Cl dxy               25     -0.944398  1 Cl dxy        
    50     -0.605290  2 C  dyz               18      0.479921  1 Cl dxx        
    21     -0.479921  1 Cl dyy               38      0.480589  2 C  py         
    61      0.358979  4 H  s                 53     -0.343069  3 H  s          
    24     -0.297911  1 Cl dxx               27      0.297911  1 Cl dyy        

 Vector   52  Occ=0.000000D+00  E= 9.813672D-01  Symmetry=a1
              MO Center= -1.5D-14, -8.8D-14, -7.0D-01, r^2= 4.6D+00
   Bfn.  Coefficient  Atom+Function         Bfn.  Coefficient  Atom+Function  
  ----- ------------  ---------------      ----- ------------  ---------------
    32     21.274752  2 C  s                 53     -8.746395  3 H  s          
    61     -8.746395  4 H  s                 69     -8.746395  5 H  s          
    33      6.953270  2 C  s                  5     -4.398420  1 Cl s          
    39     -3.205196  2 C  pz                66     -2.091304  4 H  py         
    73     -2.091304  5 H  px                31     -1.855472  2 C  s          

 Vector   53  Occ=0.000000D+00  E= 1.096880D+00  Symmetry=a1
              MO Center=  1.1D-12,  1.9D-12,  6.5D-01, r^2= 3.9D+00
   Bfn.  Coefficient  Atom+Function         Bfn.  Coefficient  Atom+Function  
  ----- ------------  ---------------      ----- ------------  ---------------
    32     16.555848  2 C  s                 53     -7.301298  3 H  s          
    61     -7.301298  4 H  s                 69     -7.301298  5 H  s          
    33     -3.677731  2 C  s                  4     -3.525945  1 Cl s          
    46      3.359853  2 C  dxx               49      3.359853  2 C  dyy        
     5     -2.823527  1 Cl s                  3      2.718956  1 Cl s          

 Vector   54  Occ=0.000000D+00  E= 1.110870D+00  Symmetry=e
              MO Center= -2.2D-03, -2.3D-03, -1.4D-01, r^2= 3.1D+00
   Bfn.  Coefficient  Atom+Function         Bfn.  Coefficient  Atom+Function  
  ----- ------------  ---------------      ----- ------------  ---------------
    61      7.780639  4 H  s                 69     -7.695845  5 H  s          
    38      3.545894  2 C  py                37     -3.479228  2 C  px         
    46      2.069989  2 C  dxx               49     -2.069989  2 C  dyy        
    66      1.454209  4 H  py                73     -1.432649  5 H  px         
    67      1.303294  4 H  pz                75     -1.289091  5 H  pz         

 Vector   55  Occ=0.000000D+00  E= 1.110870D+00  Symmetry=e
              MO Center=  2.2D-03,  2.3D-03, -1.4D-01, r^2= 3.1D+00
   Bfn.  Coefficient  Atom+Function         Bfn.  Coefficient  Atom+Function  
  ----- ------------  ---------------      ----- ------------  ---------------
    53      8.935352  3 H  s                 69     -4.541109  5 H  s          
    61     -4.394242  4 H  s                 47     -4.139978  2 C  dxy        
    37     -3.545894  2 C  px                38     -3.479228  2 C  py         
    59      1.496714  3 H  pz                57     -1.337699  3 H  px         
    58     -1.324109  3 H  py                73     -1.149702  5 H  px         

 Vector   56  Occ=0.000000D+00  E= 1.250495D+00  Symmetry=a1
              MO Center= -1.3D-12, -1.2D-12, -6.7D-01, r^2= 4.0D+00
   Bfn.  Coefficient  Atom+Function         Bfn.  Coefficient  Atom+Function  
  ----- ------------  ---------------      ----- ------------  ---------------
    32     20.082004  2 C  s                 33    -10.031022  2 C  s          
    53     -8.837150  3 H  s                 61     -8.837150  4 H  s          
    69     -8.837150  5 H  s                 46      6.212835  2 C  dxx        
    49      6.212835  2 C  dyy               51      5.366422  2 C  dzz        
     5      2.709922  1 Cl s                 31      2.407249  2 C  s          

 Vector   57  Occ=0.000000D+00  E= 1.259349D+00  Symmetry=e
              MO Center= -6.4D-02,  4.5D-02,  2.7D-01, r^2= 2.7D+00
   Bfn.  Coefficient  Atom+Function         Bfn.  Coefficient  Atom+Function  
  ----- ------------  ---------------      ----- ------------  ---------------
    48      3.189668  2 C  dxz               69     -2.390673  5 H  s          
    12     -2.140389  1 Cl px                53      1.563712  3 H  s          
     9      1.290024  1 Cl px                26      1.193803  1 Cl dxz        
    73     -1.131919  5 H  px                75      0.891536  5 H  pz         
    61      0.826961  4 H  s                 58     -0.767975  3 H  py         

 Vector   58  Occ=0.000000D+00  E= 1.259349D+00  Symmetry=e
              MO Center=  6.4D-02, -4.5D-02,  2.7D-01, r^2= 2.7D+00
   Bfn.  Coefficient  Atom+Function         Bfn.  Coefficient  Atom+Function  
  ----- ------------  ---------------      ----- ------------  ---------------
    50      3.189668  2 C  dyz               61     -2.283066  4 H  s          
    13     -2.140389  1 Cl py                53      1.857702  3 H  s          
    10      1.290024  1 Cl py                28      1.193803  1 Cl dyz        
    66     -1.062959  4 H  py                67      0.851407  4 H  pz         
    57     -0.837130  3 H  px                47      0.690740  2 C  dxy        

 Vector   59  Occ=0.000000D+00  E= 1.516988D+00  Symmetry=e
              MO Center= -1.8D-02, -1.6D-02, -1.1D+00, r^2= 2.4D+00
   Bfn.  Coefficient  Atom+Function         Bfn.  Coefficient  Atom+Function  
  ----- ------------  ---------------      ----- ------------  ---------------
    48      2.955851  2 C  dxz               50     -2.725738  2 C  dyz        
    46     -2.076416  2 C  dxx               49      2.076416  2 C  dyy        
    58     -1.287469  3 H  py                57      1.268852  3 H  px         
    75      1.113976  5 H  pz                67     -1.063069  4 H  pz         
    12     -0.875173  1 Cl px                65      0.863090  4 H  px         

 Vector   60  Occ=0.000000D+00  E= 1.516988D+00  Symmetry=e
              MO Center=  1.8D-02,  1.6D-02, -1.1D+00, r^2= 2.4D+00
   Bfn.  Coefficient  Atom+Function         Bfn.  Coefficient  Atom+Function  
  ----- ------------  ---------------      ----- ------------  ---------------
    47      4.152833  2 C  dxy               50      2.955851  2 C  dyz        
    48      2.725738  2 C  dxz               74      1.586550  5 H  py         
    65      1.521736  4 H  px                59     -1.256918  3 H  pz         
    53     -0.969823  3 H  s                 13     -0.875173  1 Cl py         
    12     -0.807040  1 Cl px                67      0.672546  4 H  pz         

 Vector   61  Occ=0.000000D+00  E= 1.531807D+00  Symmetry=a1
              MO Center= -4.1D-14,  1.1D-13,  2.5D-01, r^2= 2.6D+00
   Bfn.  Coefficient  Atom+Function         Bfn.  Coefficient  Atom+Function  
  ----- ------------  ---------------      ----- ------------  ---------------
    32     20.527781  2 C  s                 53     -5.889133  3 H  s          
    61     -5.889133  4 H  s                 69     -5.889133  5 H  s          
     4     -4.487357  1 Cl s                 14      3.544245  1 Cl pz         
    33     -2.806612  2 C  s                 51      2.557713  2 C  dzz        
    46      2.005681  2 C  dxx               49      2.005681  2 C  dyy        

 Vector   62  Occ=0.000000D+00  E= 1.632543D+00  Symmetry=a2
              MO Center=  2.8D-16,  3.5D-16, -1.5D+00, r^2= 1.9D+00
   Bfn.  Coefficient  Atom+Function         Bfn.  Coefficient  Atom+Function  
  ----- ------------  ---------------      ----- ------------  ---------------
    62      0.606449  4 H  px                71     -0.606449  5 H  py         
    65     -0.501885  4 H  px                74      0.501885  5 H  py         
    54     -0.443952  3 H  px                55      0.443952  3 H  py         
    57      0.367405  3 H  px                58     -0.367405  3 H  py         
    63      0.162498  4 H  py                70     -0.162498  5 H  px         

 Vector   63  Occ=0.000000D+00  E= 1.839759D+00  Symmetry=e
              MO Center= -1.5D-01, -8.6D-02, -1.3D+00, r^2= 2.0D+00
   Bfn.  Coefficient  Atom+Function         Bfn.  Coefficient  Atom+Function  
  ----- ------------  ---------------      ----- ------------  ---------------
    69      4.139022  5 H  s                 61     -3.540086  4 H  s          
    37      2.883072  2 C  px                38     -2.196819  2 C  py         
    73      1.028731  5 H  px                46     -1.010828  2 C  dxx        
    49      1.010828  2 C  dyy               66     -0.833228  4 H  py         
    65      0.620994  4 H  px                53     -0.598936  3 H  s          

 Vector   64  Occ=0.000000D+00  E= 1.839759D+00  Symmetry=e
              MO Center=  1.5D-01,  8.6D-02, -1.3D+00, r^2= 2.0D+00
   Bfn.  Coefficient  Atom+Function         Bfn.  Coefficient  Atom+Function  
  ----- ------------  ---------------      ----- ------------  ---------------
    53      4.433535  3 H  s                 38     -2.883072  2 C  py         
    61     -2.735461  4 H  s                 37     -2.196819  2 C  px         
    47     -2.021657  2 C  dxy               69     -1.698074  5 H  s          
    58     -0.914549  3 H  py                66     -0.849357  4 H  py         
    57     -0.795590  3 H  px                73     -0.597822  5 H  px         

 Vector   65  Occ=0.000000D+00  E= 2.002080D+00  Symmetry=e
              MO Center= -1.3D-01, -1.2D-01, -1.3D+00, r^2= 1.6D+00
   Bfn.  Coefficient  Atom+Function         Bfn.  Coefficient  Atom+Function  
  ----- ------------  ---------------      ----- ------------  ---------------
    69     -2.956439  5 H  s                 61      2.843900  4 H  s          
    37     -1.076139  2 C  px                38      1.006162  2 C  py         
    73     -0.647649  5 H  px                46      0.631619  2 C  dxx        
    49     -0.631619  2 C  dyy               66      0.610793  4 H  py         
    42     -0.606371  2 C  dxz               72     -0.576804  5 H  pz         

 Vector   66  Occ=0.000000D+00  E= 2.002080D+00  Symmetry=e
              MO Center=  1.3D-01,  1.2D-01, -1.3D+00, r^2= 1.6D+00
   Bfn.  Coefficient  Atom+Function         Bfn.  Coefficient  Atom+Function  
  ----- ------------  ---------------      ----- ------------  ---------------
    53      3.348827  3 H  s                 61     -1.771875  4 H  s          
    69     -1.576952  5 H  s                 47     -1.263237  2 C  dxy        
    38     -1.076139  2 C  py                37     -1.006162  2 C  px         
    56      0.653359  3 H  pz                58     -0.614340  3 H  py         
    44     -0.606371  2 C  dyz               57     -0.584908  3 H  px         

 Vector   67  Occ=0.000000D+00  E= 2.080198D+00  Symmetry=a1
              MO Center= -3.1D-14,  2.7D-14, -1.0D+00, r^2= 2.6D+00
   Bfn.  Coefficient  Atom+Function         Bfn.  Coefficient  Atom+Function  
  ----- ------------  ---------------      ----- ------------  ---------------
     4      4.974276  1 Cl s                 39     -4.370453  2 C  pz         
    14     -2.952585  1 Cl pz                53     -1.558610  3 H  s          
    61     -1.558610  4 H  s                 69     -1.558610  5 H  s          
    46      1.113121  2 C  dxx               49      1.113121  2 C  dyy        
    33     -0.834279  2 C  s                  3     -0.815399  1 Cl s          

 Vector   68  Occ=0.000000D+00  E= 2.260263D+00  Symmetry=a1
              MO Center=  1.1D-14, -6.9D-14, -1.3D+00, r^2= 1.5D+00
   Bfn.  Coefficient  Atom+Function         Bfn.  Coefficient  Atom+Function  
  ----- ------------  ---------------      ----- ------------  ---------------
    32     13.958028  2 C  s                 53     -5.423710  3 H  s          
    61     -5.423710  4 H  s                 69     -5.423710  5 H  s          
    33     -2.498789  2 C  s                 46      2.171357  2 C  dxx        
    49      2.171357  2 C  dyy               39     -1.452771  2 C  pz         
    66     -1.095290  4 H  py                73     -1.095290  5 H  px         

 Vector   69  Occ=0.000000D+00  E= 2.472841D+00  Symmetry=e
              MO Center=  1.0D-01, -5.7D-03, -1.3D+00, r^2= 1.4D+00
   Bfn.  Coefficient  Atom+Function         Bfn.  Coefficient  Atom+Function  
  ----- ------------  ---------------      ----- ------------  ---------------
    69      2.203154  5 H  s                 61     -1.298779  4 H  s          
    37      1.269024  2 C  px                42     -1.151139  2 C  dxz        
    53     -0.904375  3 H  s                 48     -0.783514  2 C  dxz        
    73      0.615397  5 H  px                55      0.550420  3 H  py         
    40      0.540712  2 C  dxx               43     -0.540712  2 C  dyy        

 Vector   70  Occ=0.000000D+00  E= 2.472841D+00  Symmetry=e
              MO Center= -1.0D-01,  5.7D-03, -1.3D+00, r^2= 1.4D+00
   Bfn.  Coefficient  Atom+Function         Bfn.  Coefficient  Atom+Function  
  ----- ------------  ---------------      ----- ------------  ---------------
    53      2.021842  3 H  s                 61     -1.794133  4 H  s          
    38     -1.269024  2 C  py                44      1.151139  2 C  dyz        
    41      1.081425  2 C  dxy               50      0.783514  2 C  dyz        
    71      0.712906  5 H  py                66     -0.504848  4 H  py         
    37     -0.484616  2 C  px                62      0.471459  4 H  px         

 Vector   71  Occ=0.000000D+00  E= 2.755135D+00  Symmetry=a1
              MO Center=  8.5D-15, -4.6D-16, -1.3D+00, r^2= 1.7D+00
   Bfn.  Coefficient  Atom+Function         Bfn.  Coefficient  Atom+Function  
  ----- ------------  ---------------      ----- ------------  ---------------
    32      7.103764  2 C  s                 53     -3.588816  3 H  s          
    61     -3.588816  4 H  s                 69     -3.588816  5 H  s          
    33      2.432943  2 C  s                 39     -2.266619  2 C  pz         
    31      1.080766  2 C  s                  5     -0.996491  1 Cl s          
    63     -0.852274  4 H  py                70     -0.852274  5 H  px         

 Vector   72  Occ=0.000000D+00  E= 2.996443D+00  Symmetry=e
              MO Center= -1.0D-01, -1.5D-01, -1.2D+00, r^2= 1.3D+00
   Bfn.  Coefficient  Atom+Function         Bfn.  Coefficient  Atom+Function  
  ----- ------------  ---------------      ----- ------------  ---------------
    61      4.076412  4 H  s                 69     -3.625223  5 H  s          
    38      2.525507  2 C  py                37     -2.060196  2 C  px         
    60      1.205697  4 H  s                 44     -1.098349  2 C  dyz        
    68     -1.072247  5 H  s                 63      1.005853  4 H  py         
    40      0.999083  2 C  dxx               43     -0.999083  2 C  dyy        

 Vector   73  Occ=0.000000D+00  E= 2.996443D+00  Symmetry=e
              MO Center=  1.0D-01,  1.5D-01, -1.2D+00, r^2= 1.3D+00
   Bfn.  Coefficient  Atom+Function         Bfn.  Coefficient  Atom+Function  
  ----- ------------  ---------------      ----- ------------  ---------------
    53      4.446541  3 H  s                 69     -2.614012  5 H  s          
    37     -2.525507  2 C  px                38     -2.060196  2 C  py         
    41     -1.998167  2 C  dxy               61     -1.832529  4 H  s          
    52      1.315172  3 H  s                 47     -1.250597  2 C  dxy        
    42      1.098349  2 C  dxz               44      0.895985  2 C  dyz        

 Vector   74  Occ=0.000000D+00  E= 3.956773D+00  Symmetry=a1
              MO Center=  2.8D-15,  1.0D-15,  6.5D-01, r^2= 1.3D+00
   Bfn.  Coefficient  Atom+Function         Bfn.  Coefficient  Atom+Function  
  ----- ------------  ---------------      ----- ------------  ---------------
    32      3.885250  2 C  s                  4     -3.313152  1 Cl s          
     3     -2.688672  1 Cl s                 23      2.321266  1 Cl dzz        
    18      2.308183  1 Cl dxx               21      2.308183  1 Cl dyy        
     5     -2.014505  1 Cl s                  2      1.612511  1 Cl s          
    53     -1.373647  3 H  s                 61     -1.373647  4 H  s          

 Vector   75  Occ=0.000000D+00  E= 5.214064D+00  Symmetry=a1
              MO Center= -1.4D-15,  6.6D-16, -1.1D+00, r^2= 6.1D-01
   Bfn.  Coefficient  Atom+Function         Bfn.  Coefficient  Atom+Function  
  ----- ------------  ---------------      ----- ------------  ---------------
    31      3.773209  2 C  s                 40     -2.100999  2 C  dxx        
    43     -2.100999  2 C  dyy               32     -2.080352  2 C  s          
    45     -1.866639  2 C  dzz               33      1.608209  2 C  s          
    30     -0.952615  2 C  s                 46     -0.830119  2 C  dxx        
    49     -0.830119  2 C  dyy               53      0.796787  3 H  s          


 center of mass
 --------------
 x =   0.00000000 y =   0.00000000 z =   0.18943451

 moments of inertia (a.u.)
 ------------------
         133.740116217233          -0.000000000000           0.000000000000
          -0.000000000000         133.740116217233           0.000000000000
           0.000000000000           0.000000000000          11.503461103587

     Multipole analysis of the density
     ---------------------------------

     L   x y z        total         alpha         beta         nuclear
     -   - - -        -----         -----         ----         -------
     0   0 0 0     -0.000000    -13.000000    -13.000000     26.000000

     1   1 0 0      0.000000      0.000000      0.000000      0.000000
     1   0 1 0     -0.000000     -0.000000     -0.000000      0.000000
     1   0 0 1     -0.753379     -0.376690     -0.376690      0.000000

     2   2 0 0    -15.018701    -10.362887    -10.362887      5.707073
     2   1 1 0      0.000000      0.000000      0.000000      0.000000
     2   1 0 1     -0.000000     -0.000000     -0.000000      0.000000
     2   0 2 0    -15.018701    -10.362887    -10.362887      5.707073
     2   0 1 1      0.000000     -0.000000     -0.000000      0.000000
     2   0 0 2    -13.691936    -44.674248    -44.674248     75.656560


            General Information
            -------------------
          SCF calculation type: DFT
          Wavefunction type:  closed shell.
          No. of atoms     :     5
          No. of electrons :    26
           Alpha electrons :    13
            Beta electrons :    13
          Charge           :     0
          Spin multiplicity:     1
          Use of symmetry is: on ; symmetry adaption is: on 
          Maximum number of iterations:  50
          AO basis - number of functions:    75
                     number of shells:    31
          Convergence on energy requested:  1.00D-06
          Convergence on density requested:  1.00D-05
          Convergence on gradient requested:  5.00D-04

              XC Information
              --------------
                         B3LYP Method XC Potential
                     Hartree-Fock (Exact) Exchange  0.200          
                        Slater Exchange Functional  0.800 local    
                    Becke 1988 Exchange Functional  0.720 non-local
              Lee-Yang-Parr Correlation Functional  0.810          
                  VWN I RPA Correlation Functional  0.190 local    

             Grid Information
             ----------------
          Grid used for XC integration:  medium    
          Radial quadrature: Mura-Knowles        
          Angular quadrature: Lebedev. 
          Tag              B.-S. Rad. Rad. Pts. Rad. Cut. Ang. Pts.
          ---              ---------- --------- --------- ---------
          Cl                  1.00       88          10.0       590
          C                   0.70       49          10.0       434
          H                   0.35       45          10.0       434
          Grid pruning is: on 
          Number of quadrature shells:   182
          Spatial weights used:  Erf1

          Convergence Information
          -----------------------
          Convergence aids based upon iterative change in 
          total energy or number of iterations. 
          Levelshifting, if invoked, occurs when the 
          HOMO/LUMO gap drops below (HL_TOL):  1.00D-02
          DIIS, if invoked, will attempt to extrapolate 
          using up to (NFOCK): 10 stored Fock matrices.

                    Damping( 0%)  Levelshifting(0.5)       DIIS
                  --------------- ------------------- ---------------
          dE  on:    start            ASAP                start   
          dE off:    2 iters         50 iters            50 iters 


      Screening Tolerance Information
      -------------------------------
          Density screening/tol_rho:  1.00D-10
          AO Gaussian exp screening on grid/accAOfunc:  14
          CD Gaussian exp screening on grid/accCDfunc:  20
          XC Gaussian exp screening on grid/accXCfunc:  20
          Schwarz screening/accCoul:  1.00D-08



                            NWChem DFT Gradient Module
                            --------------------------


                                       Title



  charge          =   0.00
  wavefunction    = closed shell

  Rotation of axis 
  Using symmetry


                         DFT ENERGY GRADIENTS

    atom               coordinates                        gradient
                 x          y          z           x          y          z
   1 Cl      0.000000   0.000000   1.233686    0.000000   0.000000  -0.013124
   2 C       0.000000   0.000000  -2.105396    0.000000   0.000000   0.011167
   3 H       1.379260   1.379260  -2.780093   -0.001915  -0.001915   0.000652
   4 H       0.504844  -1.884104  -2.780093   -0.000701   0.002615   0.000652
   5 H      -1.884104   0.504844  -2.780093    0.002615  -0.000701   0.000652

                 ----------------------------------------
                 |  Time  |  1-e(secs)   |  2-e(secs)   |
                 ----------------------------------------
                 |  CPU   |       0.00   |       1.06   |
                 ----------------------------------------
                 |  WALL  |       0.00   |       1.06   |
                 ----------------------------------------
  no constraints, skipping    0.0000000000000000     

@ Step       Energy      Delta E   Gmax     Grms     Xrms     Xmax   Walltime
@ ---- ---------------- -------- -------- -------- -------- -------- --------
@    0    -499.96877222  0.0D+00  0.01312  0.00442  0.00000  0.00000      3.0
                                                                    



                                Z-matrix (autoz)
                                -------- 

 Units are Angstrom for bonds and degrees for angles

      Type          Name      I     J     K     L     M      Value     Gradient
      ----------- --------  ----- ----- ----- ----- ----- ---------- ----------
    1 Stretch                  1     2                       1.76697   -0.01312
    2 Stretch                  2     3                       1.09220   -0.00277
    3 Stretch                  2     4                       1.09220   -0.00277
    4 Stretch                  2     5                       1.09220   -0.00277
    5 Bend                     1     2     3               109.08038    0.00015
    6 Bend                     1     2     4               109.08038    0.00015
    7 Bend                     1     2     5               109.08038    0.00015
    8 Bend                     3     2     4               109.85922   -0.00015
    9 Bend                     3     2     5               109.85922   -0.00015
   10 Bend                     4     2     5               109.85922   -0.00015

  no constraints, skipping    0.0000000000000000     
  no constraints, skipping    0.0000000000000000     
  no constraints, skipping    0.0000000000000000     
  no constraints, skipping    0.0000000000000000     
  no constraints, skipping    0.0000000000000000     
  no constraints, skipping    0.0000000000000000     
  no constraints, skipping    0.0000000000000000     
  no constraints, skipping    0.0000000000000000     

                                 NWChem DFT Module
                                 -----------------


                                       Title




 Summary of "ao basis" -> "ao basis" (cartesian)
 ------------------------------------------------------------------------------
       Tag                 Description            Shells   Functions and Types
 ---------------- ------------------------------  ------  ---------------------
 Cl                        def2-svpd                11       29   5s4p2d
 C                         def2-svpd                 8       22   4s2p2d
 H                         def2-svpd                 4        8   2s2p


      Symmetry analysis of basis
      --------------------------

        a1         29
        a2          2
        e          44

  Caching 1-el integrals 
  Rotation of axis 

            General Information
            -------------------
          SCF calculation type: DFT
          Wavefunction type:  closed shell.
          No. of atoms     :     5
          No. of electrons :    26
           Alpha electrons :    13
            Beta electrons :    13
          Charge           :     0
          Spin multiplicity:     1
          Use of symmetry is: on ; symmetry adaption is: on 
          Maximum number of iterations:  50
          AO basis - number of functions:    75
                     number of shells:    31
          Convergence on energy requested:  1.00D-06
          Convergence on density requested:  1.00D-05
          Convergence on gradient requested:  5.00D-04

              XC Information
[...]
          -0.000000000000         138.186373649448          -0.000000000000
          -0.000000000000          -0.000000000000          11.674912990675

     Multipole analysis of the density
     ---------------------------------

     L   x y z        total         alpha         beta         nuclear
     -   - - -        -----         -----         ----         -------
     0   0 0 0     -0.000000    -13.000000    -13.000000     26.000000

     1   1 0 0      0.000000      0.000000      0.000000      0.000000
     1   0 1 0      0.000000      0.000000      0.000000      0.000000
     1   0 0 1     -0.786008     -0.627631     -0.627631      0.469253

     2   2 0 0    -15.034433    -10.413283    -10.413283      5.792133
     2   1 1 0      0.000000     -0.000000     -0.000000      0.000000
     2   1 0 1      0.000000      0.000000      0.000000      0.000000
     2   0 2 0    -15.034433    -10.413283    -10.413283      5.792133
     2   0 1 1     -0.000000     -0.000000     -0.000000     -0.000000
     2   0 0 2    -13.662789    -45.839796    -45.839796     78.016803

 Line search: 
     step= 1.00 grad=-8.3D-07 hess= 4.0D-07 energy=   -499.969221 mode=accept  
 new step= 1.00                   predicted energy=   -499.969221
  no constraints, skipping    0.0000000000000000     
  no constraints, skipping    0.0000000000000000     
  no constraints, skipping    0.0000000000000000     

          --------
          Step   3
          --------


                         Geometry "geometry" -> "geometry"
                         ---------------------------------

 Output coordinates in angstroms (scale by  1.889725989 to convert to a.u.)

  No.       Tag          Charge          X              Y              Z
 ---- ---------------- ---------- -------------- -------------- --------------
    1 Cl                  17.0000    -0.00000000    -0.00000000     0.67284881
    2 C                    6.0000     0.00000000     0.00000000    -1.12849762
    3 H                    1.0000     0.73529193     0.73529193    -1.47304196
    4 H                    1.0000     0.26913553    -1.00442746    -1.47304196
    5 H                    1.0000    -1.00442746     0.26913553    -1.47304196

      Atomic Mass 
      ----------- 

      Cl                34.968850
      C                 12.000000
      H                  1.007825


 Effective nuclear repulsion energy (a.u.)      50.8587237657

            Nuclear Dipole moment (a.u.) 
            ----------------------------
        X                 Y               Z
 ---------------- ---------------- ----------------
     0.0000000000     0.0000000000     0.4692531665

      Symmetry information
      --------------------

 Group name             C3v       
 Group number             17
 Group order               6
 No. of unique centers     3

      Symmetry unique atoms

     1    2    3


                                 NWChem DFT Module
                                 -----------------


                                       Title




 Summary of "ao basis" -> "ao basis" (cartesian)
 ------------------------------------------------------------------------------
       Tag                 Description            Shells   Functions and Types
 ---------------- ------------------------------  ------  ---------------------
 Cl                        def2-svpd                11       29   5s4p2d
 C                         def2-svpd                 8       22   4s2p2d
 H                         def2-svpd                 4        8   2s2p


      Symmetry analysis of basis
      --------------------------

        a1         29
        a2          2
        e          44


  The DFT is already converged 

         Total DFT energy =   -499.969221499830


            General Information
            -------------------
          SCF calculation type: DFT
          Wavefunction type:  closed shell.
          No. of atoms     :     5
          No. of electrons :    26
           Alpha electrons :    13
            Beta electrons :    13
          Charge           :     0
          Spin multiplicity:     1
          Use of symmetry is: on ; symmetry adaption is: on 
          Maximum number of iterations:  50
          AO basis - number of functions:    75
                     number of shells:    31
          Convergence on energy requested:  1.00D-06
          Convergence on density requested:  1.00D-05
          Convergence on gradient requested:  5.00D-04

              XC Information
              --------------
                         B3LYP Method XC Potential
                     Hartree-Fock (Exact) Exchange  0.200          
                        Slater Exchange Functional  0.800 local    
                    Becke 1988 Exchange Functional  0.720 non-local
              Lee-Yang-Parr Correlation Functional  0.810          
                  VWN I RPA Correlation Functional  0.190 local    

             Grid Information
             ----------------
          Grid used for XC integration:  medium    
          Radial quadrature: Mura-Knowles        
          Angular quadrature: Lebedev. 
          Tag              B.-S. Rad. Rad. Pts. Rad. Cut. Ang. Pts.
          ---              ---------- --------- --------- ---------
          Cl                  1.00       88          10.0       590
          C                   0.70       49          10.0       434
          H                   0.35       45          10.0       434
          Grid pruning is: on 
          Number of quadrature shells:   182
          Spatial weights used:  Erf1

          Convergence Information
          -----------------------
          Convergence aids based upon iterative change in 
          total energy or number of iterations. 
          Levelshifting, if invoked, occurs when the 
          HOMO/LUMO gap drops below (HL_TOL):  1.00D-02
          DIIS, if invoked, will attempt to extrapolate 
          using up to (NFOCK): 10 stored Fock matrices.

                    Damping( 0%)  Levelshifting(0.5)       DIIS
                  --------------- ------------------- ---------------
          dE  on:    start            ASAP                start   
          dE off:    2 iters         50 iters            50 iters 


      Screening Tolerance Information
      -------------------------------
          Density screening/tol_rho:  1.00D-10
          AO Gaussian exp screening on grid/accAOfunc:  14
          CD Gaussian exp screening on grid/accCDfunc:  20
          XC Gaussian exp screening on grid/accXCfunc:  20
          Schwarz screening/accCoul:  1.00D-08



                            NWChem DFT Gradient Module
                            --------------------------


                                       Title



  charge          =   0.00
  wavefunction    = closed shell

  Rotation of axis 
  Using symmetry


                         DFT ENERGY GRADIENTS

    atom               coordinates                        gradient
                 x          y          z           x          y          z
   1 Cl     -0.000000  -0.000000   1.271500    0.000000   0.000000   0.000017
   2 C       0.000000   0.000000  -2.132551    0.000000   0.000000  -0.000011
   3 H       1.389500   1.389500  -2.783646    0.000001   0.000001  -0.000002
   4 H       0.508592  -1.898093  -2.783646    0.000000  -0.000001  -0.000002
   5 H      -1.898093   0.508592  -2.783646   -0.000001   0.000000  -0.000002

                 ----------------------------------------
                 |  Time  |  1-e(secs)   |  2-e(secs)   |
                 ----------------------------------------
                 |  CPU   |       0.00   |       1.02   |
                 ----------------------------------------
                 |  WALL  |       0.00   |       1.02   |
                 ----------------------------------------
  no constraints, skipping    0.0000000000000000     

  Step       Energy      Delta E   Gmax     Grms     Xrms     Xmax   Walltime
  ---- ---------------- -------- -------- -------- -------- -------- --------
@    3    -499.96922150 -4.3D-07  0.00002  0.00001  0.00056  0.00110     12.0
                                     ok       ok       ok       ok  



                                Z-matrix (autoz)
                                -------- 

 Units are Angstrom for bonds and degrees for angles

      Type          Name      I     J     K     L     M      Value     Gradient
      ----------- --------  ----- ----- ----- ----- ----- ---------- ----------
    1 Stretch                  1     2                       1.80135    0.00002
    2 Stretch                  2     3                       1.09545    0.00000
    3 Stretch                  2     4                       1.09545    0.00000
    4 Stretch                  2     5                       1.09545    0.00000
    5 Bend                     1     2     3               108.33196    0.00000
    6 Bend                     1     2     4               108.33196    0.00000
    7 Bend                     1     2     5               108.33196    0.00000
    8 Bend                     3     2     4               110.58606   -0.00000
    9 Bend                     3     2     5               110.58606   -0.00000
   10 Bend                     4     2     5               110.58606   -0.00000


      ----------------------
      Optimization converged
      ----------------------


  Step       Energy      Delta E   Gmax     Grms     Xrms     Xmax   Walltime
  ---- ---------------- -------- -------- -------- -------- -------- --------
@    3    -499.96922150 -4.3D-07  0.00002  0.00001  0.00056  0.00110     12.0
                                     ok       ok       ok       ok  



                                Z-matrix (autoz)
                                -------- 

 Units are Angstrom for bonds and degrees for angles

      Type          Name      I     J     K     L     M      Value     Gradient
      ----------- --------  ----- ----- ----- ----- ----- ---------- ----------
    1 Stretch                  1     2                       1.80135    0.00002
    2 Stretch                  2     3                       1.09545    0.00000
    3 Stretch                  2     4                       1.09545    0.00000
    4 Stretch                  2     5                       1.09545    0.00000
    5 Bend                     1     2     3               108.33196    0.00000
    6 Bend                     1     2     4               108.33196    0.00000
    7 Bend                     1     2     5               108.33196    0.00000
    8 Bend                     3     2     4               110.58606   -0.00000
    9 Bend                     3     2     5               110.58606   -0.00000
   10 Bend                     4     2     5               110.58606   -0.00000



                         Geometry "geometry" -> "geometry"
                         ---------------------------------

 Output coordinates in angstroms (scale by  1.889725989 to convert to a.u.)

  No.       Tag          Charge          X              Y              Z
 ---- ---------------- ---------- -------------- -------------- --------------
    1 Cl                  17.0000    -0.00000000    -0.00000000     0.67284881
    2 C                    6.0000     0.00000000     0.00000000    -1.12849762
    3 H                    1.0000     0.73529193     0.73529193    -1.47304196
    4 H                    1.0000     0.26913553    -1.00442746    -1.47304196
    5 H                    1.0000    -1.00442746     0.26913553    -1.47304196

      Atomic Mass 
      ----------- 

      Cl                34.968850
      C                 12.000000
      H                  1.007825


 Effective nuclear repulsion energy (a.u.)      50.8587237657

            Nuclear Dipole moment (a.u.) 
            ----------------------------
        X                 Y               Z
 ---------------- ---------------- ----------------
     0.0000000000     0.0000000000     0.4692531665

      Symmetry information
      --------------------

 Group name             C3v       
 Group number             17
 Group order               6
 No. of unique centers     3

      Symmetry unique atoms

     1    2    3


                Final and change from initial internal coordinates
                --------------------------------------------------



                                Z-matrix (autoz)
                                -------- 

 Units are Angstrom for bonds and degrees for angles

      Type          Name      I     J     K     L     M      Value       Change
      ----------- --------  ----- ----- ----- ----- ----- ---------- ----------
    1 Stretch                  1     2                       1.80135    0.03438
    2 Stretch                  2     3                       1.09545    0.00325
    3 Stretch                  2     4                       1.09545    0.00325
    4 Stretch                  2     5                       1.09545    0.00325
    5 Bend                     1     2     3               108.33196   -0.74842
    6 Bend                     1     2     4               108.33196   -0.74842
    7 Bend                     1     2     5               108.33196   -0.74842
    8 Bend                     3     2     4               110.58606    0.72684
    9 Bend                     3     2     5               110.58606    0.72684
   10 Bend                     4     2     5               110.58606    0.72684

 ==============================================================================
                                internuclear distances
 ------------------------------------------------------------------------------
       center one      |      center two      | atomic units |  angstroms
 ------------------------------------------------------------------------------
    2 C                |   1 Cl               |     3.40405  |     1.80135
    3 H                |   2 C                |     2.07011  |     1.09545
    4 H                |   2 C                |     2.07011  |     1.09545
    5 H                |   2 C                |     2.07011  |     1.09545
 ------------------------------------------------------------------------------
                         number of included internuclear distances:          4
 ==============================================================================



 ==============================================================================
                                 internuclear angles
 ------------------------------------------------------------------------------
        center 1       |       center 2       |       center 3       |  degrees
 ------------------------------------------------------------------------------
    1 Cl               |   2 C                |   3 H                |   108.33
    1 Cl               |   2 C                |   4 H                |   108.33
    1 Cl               |   2 C                |   5 H                |   108.33
    3 H                |   2 C                |   4 H                |   110.59
    3 H                |   2 C                |   5 H                |   110.59
    4 H                |   2 C                |   5 H                |   110.59
 ------------------------------------------------------------------------------
                            number of included internuclear angles:          6
 ==============================================================================




 Task  times  cpu:       11.7s     wall:       11.9s


                                NWChem Input Module
                                -------------------


 Summary of allocated global arrays
-----------------------------------
  No active global arrays


MA_summarize_allocated_blocks: starting scan ...
MA_summarize_allocated_blocks: scan completed: 0 heap blocks, 0 stack blocks
MA usage statistics:

	allocation statistics:
					      heap	     stack
					      ----	     -----
	current number of blocks	         0	         0
	maximum number of blocks	        26	        62
	current total bytes		         0	         0
	maximum total bytes		 269543088	  32933176
	maximum total K-bytes		    269544	     32934
	maximum total M-bytes		       270	        33


                                     CITATION
                                     --------
                Please cite the following reference when publishing
                           results obtained with NWChem:

          E. Apra, E. J. Bylaska, W. A. de Jong, N. Govind, K. Kowalski,
       T. P. Straatsma, M. Valiev, H. J. J. van Dam, Y. Alexeev, J. Anchell,
       V. Anisimov, F. W. Aquino, R. Atta-Fynn, J. Autschbach, N. P. Bauman,
     J. C. Becca, D. E. Bernholdt, K. Bhaskaran-Nair, S. Bogatko, P. Borowski,
         J. Boschen, J. Brabec, A. Bruner, E. Cauet, Y. Chen, G. N. Chuev,
      C. J. Cramer, J. Daily, M. J. O. Deegan, T. H. Dunning Jr., M. Dupuis,
   K. G. Dyall, G. I. Fann, S. A. Fischer, A. Fonari, H. Fruchtl, L. Gagliardi,
      J. Garza, N. Gawande, S. Ghosh, K. Glaesemann, A. W. Gotz, J. Hammond,
       V. Helms, E. D. Hermes, K. Hirao, S. Hirata, M. Jacquelin, L. Jensen,
   B. G. Johnson, H. Jonsson, R. A. Kendall, M. Klemm, R. Kobayashi, V. Konkov,
      S. Krishnamoorthy, M. Krishnan, Z. Lin, R. D. Lins, R. J. Littlefield,
      A. J. Logsdail, K. Lopata, W. Ma, A. V. Marenich, J. Martin del Campo,
   D. Mejia-Rodriguez, J. E. Moore, J. M. Mullin, T. Nakajima, D. R. Nascimento,
    J. A. Nichols, P. J. Nichols, J. Nieplocha, A. Otero-de-la-Roza, B. Palmer,
    A. Panyala, T. Pirojsirikul, B. Peng, R. Peverati, J. Pittner, L. Pollack,
   R. M. Richard, P. Sadayappan, G. C. Schatz, W. A. Shelton, D. W. Silverstein,
   D. M. A. Smith, T. A. Soares, D. Song, M. Swart, H. L. Taylor, G. S. Thomas,
            V. Tipparaju, D. G. Truhlar, K. Tsemekhman, T. Van Voorhis,
      A. Vazquez-Mayagoitia, P. Verma, O. Villa, A. Vishnu, K. D. Vogiatzis,
        D. Wang, J. H. Weare, M. J. Williamson, T. L. Windus, K. Wolinski,
        A. T. Wong, Q. Wu, C. Yang, Q. Yu, M. Zacharias, Z. Zhang, Y. Zhao,
                                and R. J. Harrison
                        "NWChem: Past, present, and future
                         J. Chem. Phys. 152, 184102 (2020)
                               doi:10.1063/5.0004997

                                      AUTHORS
                                      -------
  E. Apra, E. J. Bylaska, N. Govind, K. Kowalski, M. Valiev, D. Mejia-Rodriguez,
       A. Kunitsa, N. P. Bauman, A. Panyala, W. A. de Jong, T. P. Straatsma,
   H. J. J. van Dam, D. Wang, T. L. Windus, J. Hammond, J. Autschbach, A. Woods,
    K. Bhaskaran-Nair, J. Brabec, K. Lopata, S. A. Fischer, S. Krishnamoorthy,
     M. Jacquelin, W. Ma, M. Klemm, O. Villa, Y. Chen, V. Anisimov, F. Aquino,
     S. Hirata, M. T. Hackler, E. Hermes, L. Jensen, J. E. Moore, J. C. Becca,
      V. Konjkov, T. Risthaus, M. Malagoli, A. Marenich, A. Otero-de-la-Roza,
        J. Mullin, P. Nichols, R. Peverati, J. Pittner, Y. Zhao, P.-D. Fan,
        A. Fonari, M. J. Williamson, R. J. Harrison, J. R. Rehr, M. Dupuis,
     D. Silverstein, D. M. A. Smith, J. Nieplocha, V. Tipparaju, M. Krishnan,
     B. E. Van Kuiken, A. Vazquez-Mayagoitia, M. Swart, Q. Wu, T. Van Voorhis,
     A. A. Auer, M. Nooijen, L. D. Crosby, E. Brown, G. Cisneros, G. I. Fann,
   H. Fruchtl, J. Garza, K. Hirao, R. A. Kendall, J. A. Nichols, K. Tsemekhman,
    K. Wolinski, J. Anchell, D. E. Bernholdt, P. Borowski, T. Clark, D. Clerc,
   H. Dachsel, M. J. O. Deegan, K. Dyall, D. Elwood, E. Glendening, M. Gutowski,
   A. C. Hess, J. Jaffe, B. G. Johnson, J. Ju, R. Kobayashi, R. Kutteh, Z. Lin,
   R. Littlefield, X. Long, B. Meng, T. Nakajima, S. Niu, L. Pollack, M. Rosing,
   K. Glaesemann, G. Sandrone, M. Stave, H. Taylor, G. Thomas, J. H. van Lenthe,
                               A. T. Wong, Z. Zhang.

 Total times  cpu:       11.7s     wall:       12.0s
